 Gaussian 09, Revision B.01,
 Gaussian 09:  EM64L-G09RevB.01 12-Aug-2010

 ---------------------------------------------
 #p hf/6-31g* opt=(ts,calcfc,noeigentest) freq
 ---------------------------------------------

 ------------------------------
 Gaussian input prepared by ASE
 ------------------------------
 Symbolic Z-matrix:
 Charge =  0 Multiplicity = 2

 SCF Done:  E(UHF) =  -345.258757989     A.U. after   23 cycles
 SCF Done:  E(UHF) =  -345.258757997     A.U. after   11 cycles
 Optimization completed.
    -- Stationary point found.
 Normal termination of Gaussian 09 at Thu Apr 26 14:05:08 2018.

 -----------------------------------------------------------------
 #P Geom=AllCheck Guess=TCheck SCRF=Check GenChk UHF/6-31G(d) Freq
 -----------------------------------------------------------------

 Gaussian input prepared by ASE
 ------------------------------
 Redundant internal coordinates taken from checkpoint file:
 /home/harms.n/Code/AutoTST/ipython_notebooks/Gau-10696.chk
 Charge =  0 Multiplicity = 2

                         Standard orientation:
 ---------------------------------------------------------------------
 Center     Atomic      Atomic             Coordinates (Angstroms)
 Number     Number       Type             X           Y           Z
 ---------------------------------------------------------------------
      1          8           0       -2.586212   -0.189649   -0.453412
      2          8           0       -2.363210    1.145059   -0.269446
      3          6           0        0.364688   -0.147417    0.925471
      4          6           0        1.405814    0.011446    0.063872
      5          6           0       -0.660611   -1.180107    0.891448
      6          6           0        2.375042    1.154474    0.233477
      7          6           0        1.703307   -0.905357   -1.095656
      8          1           0       -1.821995    1.389458   -1.011005
      9          1           0        0.248952    0.592103    1.699903
     10          1           0       -1.670825   -0.709429    0.194260
     11          1           0       -1.151083   -1.364995    1.835802
     12          1           0       -0.433899   -2.092731    0.362677
     13          1           0        2.118436    1.781251    1.079193
     14          1           0        3.387079    0.784536    0.382599
     15          1           0        2.398016    1.780449   -0.656119
     16          1           0        0.970975   -1.690913   -1.219974
     17          1           0        1.741851   -0.340012   -2.023962
     18          1           0        2.678424   -1.371234   -0.972185
 ---------------------------------------------------------------------

 SCF Done:  E(UHF) =  -345.258757997     A.U. after    1 cycles

 The electronic state is 2-A.
 Alpha  occ. eigenvalues --  -20.64353 -20.62569 -11.25061 -11.24475 -11.22574
 Alpha  occ. eigenvalues --  -11.22546 -11.22424  -1.50919  -1.18083  -1.11421
 Alpha  occ. eigenvalues --   -1.01479  -0.95125  -0.88259  -0.74136  -0.71927
 Alpha  occ. eigenvalues --   -0.71155  -0.64760  -0.62305  -0.61380  -0.61029
 Alpha  occ. eigenvalues --   -0.55855  -0.54952  -0.53498  -0.51777  -0.51244
 Alpha  occ. eigenvalues --   -0.48656  -0.48255  -0.44005  -0.33619
 Alpha virt. eigenvalues --    0.18924   0.21996   0.24189   0.26268   0.26787
 Alpha virt. eigenvalues --    0.29367   0.31398   0.31622   0.33137   0.34278
 Alpha virt. eigenvalues --    0.35802   0.38041   0.38951   0.42581   0.45785

  Beta  occ. eigenvalues --  -20.62449 -20.61531 -11.23834 -11.23590 -11.22896
  Beta  occ. eigenvalues --  -11.22755 -11.22611  -1.47208  -1.12510  -1.09871
  Beta  occ. eigenvalues --   -0.99834  -0.95170  -0.86262  -0.71966  -0.71042
  Beta  occ. eigenvalues --   -0.64557  -0.63166  -0.61216  -0.59402  -0.58708
  Beta  occ. eigenvalues --   -0.55250  -0.54409  -0.53417  -0.51407  -0.48437
  Beta  occ. eigenvalues --   -0.45932  -0.45743  -0.35322
  Beta virt. eigenvalues --    0.07193   0.20515   0.21898   0.24400   0.26571
  Beta virt. eigenvalues --    0.26768   0.29541   0.31834   0.32886   0.33593
  Beta virt. eigenvalues --    0.35828   0.36331   0.38848   0.39925   0.43269

 Mulliken atomic charges:
              1
     1  O   -0.319955
     2  O   -0.439802
     3  C   -0.181915
     4  C    0.059106
     5  C   -0.518118
     6  C   -0.509547
     7  C   -0.515372
     8  H    0.455570
     9  H    0.190401
    10  H    0.337036
    11  H    0.206165
    12  H    0.197625
    13  H    0.177005
    14  H    0.171115
    15  H    0.166632
    16  H    0.178778
    17  H    0.170532
    18  H    0.174743
 Sum of Mulliken atomic charges =   0.00000

 Dipole moment (field-independent basis, Debye):
    X=              3.0864    Y=             -0.0572    Z=             -0.5895  Tot=              3.1427
 Quadrupole moment (field-independent basis, Debye-Ang):
   XX=            -53.4386   YY=            -42.4221   ZZ=            -42.0571
   XY=              1.4471   XZ=             -0.6723   YZ=             -2.0426

  Exact polarizability: 101.330  -4.834  62.467   3.309  -4.613  59.535
 Approx polarizability:  61.775   1.508  51.915  -2.373  -1.113  50.245

 ******    1 imaginary frequencies (negative Signs) ******

                     1                      2                      3
                     A                      A                      A
 Frequencies -- -3388.1900                40.4655                61.1415
 Red. masses --     1.0841                 4.2569                 3.8362
 Frc consts  --     7.3323                 0.0041                 0.0084
 IR Inten    -- 11535.9354                 2.5173                 6.1128
 Raman Activ --   951.1218                 4.7064                 2.9683

                     4                      5                      6
                     A                      A                      A
 Frequencies --    67.7724               104.3857               158.2910
 Red. masses --     3.7849                 1.0821                 1.4392
 Frc consts  --     0.0102                 0.0069                 0.0212
 IR Inten    --     3.1077                 0.3041                 0.9582
 Raman Activ --     6.7644                 0.5078                 1.7958

                     7                      8                      9
                     A                      A                      A
 Frequencies --   209.7425               311.6923               352.0996
 Red. masses --     1.9599                 2.4375                 1.7955
 Frc consts  --     0.0508                 0.1395                 0.1311
 IR Inten    --     0.0298                14.7107                44.8189
 Raman Activ --     4.9643                 1.3948                 4.6515

                    10                     11                     12
                     A                      A                      A
 Frequencies --   382.0072               416.3485               473.7582
 Red. masses --     1.7410                 1.8151                 2.6356
 Frc consts  --     0.1497                 0.1854                 0.3485
 IR Inten    --    55.4843                40.8486                 1.2546
 Raman Activ --     6.7969                 4.0052                 3.4913

                    13                     14                     15
                     A                      A                      A
 Frequencies --   516.5410               567.9332               592.5026
 Red. masses --     2.7311                 2.6531                 1.4753
 Frc consts  --     0.4293                 0.5042                 0.3052
 IR Inten    --     8.8837                 1.2104                25.9371
 Raman Activ --    17.4159                 6.5306                 8.3850

                    16                     17                     18
                     A                      A                      A
 Frequencies --   806.9071               934.7553              1050.0449
 Red. masses --     2.9251                 1.2579                 1.4307
 Frc consts  --     1.1221                 0.6476                 0.9294
 IR Inten    --     0.8561                15.0184                 0.1116
 Raman Activ --     5.3786                 1.2405                 4.1821

                    19                     20                     21
                     A                      A                      A
 Frequencies --  1072.8800              1092.2596              1146.2074
 Red. masses --     1.5605                 1.2384                 3.1604
 Frc consts  --     1.0583                 0.8705                 2.4463
 IR Inten    --     3.2991                 1.3707                14.6947
 Raman Activ --    13.2998                 3.2043                23.2729

                    22                     23                     24
                     A                      A                      A
 Frequencies --  1158.9205              1168.0219              1187.0189
 Red. masses --     1.6820                 1.7252                 1.5676
 Frc consts  --     1.3310                 1.3867                 1.3013
 IR Inten    --    12.5506                 6.7990                 0.1213
 Raman Activ --    15.2300                23.7012                 0.5871

                    25                     26                     27
                     A                      A                      A
 Frequencies --  1224.6623              1326.2151              1358.7492
 Red. masses --     2.3780                 1.4604                 1.5327
 Frc consts  --     2.1013                 1.5134                 1.6672
 IR Inten    --     1.6124                16.7029                 8.0156
 Raman Activ --   138.5433                 9.0903                19.8500

                    28                     29                     30
                     A                      A                      A
 Frequencies --  1489.5195              1547.9884              1566.0340
 Red. masses --     1.5798                 1.0577                 1.3656
 Frc consts  --     2.0651                 1.4933                 1.9733
 IR Inten    --     3.0722                28.3004                 4.6499
 Raman Activ --     1.6749                10.0157                10.8073

                    31                     32                     33
                     A                      A                      A
 Frequencies --  1572.5289              1578.6004              1614.5902
 Red. masses --     1.2842                 1.1018                 1.2142
 Frc consts  --     1.8710                 1.6176                 1.8650
 IR Inten    --     1.1204                41.3408                 2.5816
 Raman Activ --     9.7630                 4.6915                46.7033

                    34                     35                     36
                     A                      A                      A
 Frequencies --  1619.5869              1625.2289              1635.9592
 Red. masses --     1.0917                 1.2104                 1.0625
 Frc consts  --     1.6872                 1.8838                 1.6754
 IR Inten    --     1.0338                 6.3694                10.7913
 Raman Activ --    11.3523                30.6774                 8.1692

                    37                     38                     39
                     A                      A                      A
 Frequencies --  1640.4957              1683.4895              3184.3530
 Red. masses --     1.0909                 1.7578                 1.0402
 Frc consts  --     1.7298                 2.9352                 6.2146
 IR Inten    --     5.6692                 1.8755                25.1683
 Raman Activ --    14.5512                73.9621                48.9146

                    40                     41                     42
                     A                      A                      A
 Frequencies --  3193.2116              3227.0773              3233.6538
 Red. masses --     1.0423                 1.1009                 1.1006
 Frc consts  --     6.2616                 6.7550                 6.7808
 IR Inten    --    59.1482                 7.7766                58.9116
 Raman Activ --   225.3075                28.4527               173.6269

                    43                     44                     45
                     A                      A                      A
 Frequencies --  3280.5146              3282.1176              3308.0377
 Red. masses --     1.0884                 1.0689                 1.0945
 Frc consts  --     6.9010                 6.7841                 7.0568
 IR Inten    --    23.6056                14.0927                35.0119
 Raman Activ --    72.8029               137.7236                40.6066

                    46                     47                     48
                     A                      A                      A
 Frequencies --  3339.7184              3362.6865              4068.1712
 Red. masses --     1.0914                 1.1073                 1.0684
 Frc consts  --     7.1724                 7.3772                10.4181
 IR Inten    --     7.4958                26.6332                39.4499
 Raman Activ --   101.8935                63.4905                56.6321

 - Thermochemistry -
 -------------------
 Temperature   298.150 Kelvin.  Pressure   1.00000 Atm.
 Atom     1 has atomic number  8 and mass  15.99491

 Molecular mass:   103.07590 amu.
 Principal axes and moments of inertia in atomic units:
                           1         2         3
     Eigenvalues --   501.138851517.128261624.97016
           X            0.99962   0.02158  -0.01705
           Y           -0.02087   0.99896   0.04055
           Z            0.01791  -0.04018   0.99903
 This molecule is an asymmetric top.
 Rotational symmetry number  1.
 Warning -- assumption of classical behavior for rotation
           may cause significant error
 Rotational temperatures (Kelvin)      0.17283     0.05709     0.05330
 Rotational constants (GHZ):           3.60128     1.18958     1.11063
    1 imaginary frequencies ignored.
 Zero-point vibrational energy     411724.1 (Joules/Mol)
                                   98.40441 (Kcal/Mol)
 Warning -- explicit consideration of  14 degrees of freedom as
           vibrations may cause significant error
 Vibrational temperatures:     58.22    87.97    97.51   150.19   227.75
          (Kelvin)            301.77   448.46   506.59   549.62   599.03
                              681.63   743.19   817.13   852.48  1160.96
                             1344.90  1510.78  1543.63  1571.52  1649.13
                             1667.43  1680.52  1707.85  1762.01  1908.13
                             1954.93  2143.08  2227.21  2253.17  2262.52
                             2271.25  2323.03  2330.22  2338.34  2353.78
                             2360.30  2422.16  4581.57  4594.31  4643.04
                             4652.50  4719.92  4722.23  4759.52  4805.10
                             4838.15  5853.18

 Zero-point correction=                           0.156817 (Hartree/Particle)
 Thermal correction to Energy=                    0.166556
 Thermal correction to Enthalpy=                  0.167500
 Thermal correction to Gibbs Free Energy=         0.120316
 Sum of electronic and zero-point Energies=           -345.101941
 Sum of electronic and thermal Energies=              -345.092202
 Sum of electronic and thermal Enthalpies=            -345.091258
 Sum of electronic and thermal Free Energies=         -345.138442

                     E (Thermal)             CV                S
                      KCal/Mol        Cal/Mol-Kelvin    Cal/Mol-Kelvin
 Total                  104.516             32.352             99.307
 Electronic               0.000              0.000              1.377
 Translational            0.889              2.981             39.808
 Rotational               0.889              2.981             28.604
 Vibrational            102.738             26.390             29.518
 Vibration     1          0.594              1.981              5.236
 Vibration     2          0.597              1.973              4.420
 Vibration     3          0.598              1.970              4.217
 Vibration     4          0.605              1.946              3.371
 Vibration     5          0.621              1.893              2.570
 Vibration     6          0.642              1.826              2.046
 Vibration     7          0.700              1.651              1.353
 Vibration     8          0.729              1.571              1.157
 Vibration     9          0.751              1.509              1.031
 Vibration    10          0.780              1.435              0.904
 Vibration    11          0.831              1.308              0.727
 Vibration    12          0.872              1.213              0.618
 Vibration    13          0.924              1.101              0.508
 Vibration    14          0.950              1.048              0.463

 Optimization completed.
    -- Stationary point found.
 Normal termination of Gaussian 09 at Thu Apr 26 14:06:21 2018.
