 Gaussian 09, Revision B.01,
 Gaussian 09:  EM64L-G09RevB.01 12-Aug-2010

 --------------------------
 #p hf/6-31g* irc=(calcall)
 --------------------------

 ------------------------------
 Gaussian input prepared by ASE
 ------------------------------
 Symbolic Z-matrix:
 Charge =  0 Multiplicity = 2

 SCF Done:  E(UHF) =  -345.258757997     A.U. after   23 cycles
 SCF Done:  E(UHF) =  -345.261032263     A.U. after   19 cycles
 SCF Done:  E(UHF) =  -345.266894933     A.U. after   19 cycles
 SCF Done:  E(UHF) =  -345.274315998     A.U. after   18 cycles
 SCF Done:  E(UHF) =  -345.281256944     A.U. after   18 cycles
 SCF Done:  E(UHF) =  -345.286024520     A.U. after   17 cycles
 SCF Done:  E(UHF) =  -345.288704762     A.U. after   16 cycles
 SCF Done:  E(UHF) =  -345.290814118     A.U. after   16 cycles
 SCF Done:  E(UHF) =  -345.292681534     A.U. after   16 cycles
 SCF Done:  E(UHF) =  -345.294312285     A.U. after   16 cycles
 SCF Done:  E(UHF) =  -345.260975342     A.U. after   27 cycles
 SCF Done:  E(UHF) =  -345.266462720     A.U. after   24 cycles
 SCF Done:  E(UHF) =  -345.272972961     A.U. after   24 cycles
 SCF Done:  E(UHF) =  -345.278521544     A.U. after   24 cycles
 SCF Done:  E(UHF) =  -345.282077232     A.U. after   24 cycles
 SCF Done:  E(UHF) =  -345.284480740     A.U. after   23 cycles
 SCF Done:  E(UHF) =  -345.286578677     A.U. after   22 cycles
 SCF Done:  E(UHF) =  -345.288513196     A.U. after   22 cycles
 SCF Done:  E(UHF) =  -345.290311782     A.U. after   22 cycles
 SCF Done:  E(UHF) =  -345.291996578     A.U. after   22 cycles

                          Input orientation:
 ---------------------------------------------------------------------
 Center     Atomic      Atomic             Coordinates (Angstroms)
 Number     Number       Type             X           Y           Z
 ---------------------------------------------------------------------
      1          8           0       -2.226816    0.560729   -1.204459
      2          8           0       -1.535303   -0.189146   -2.041205
      3          6           0        0.853859    0.593425    0.036373
      4          6           0        1.142591   -0.417066    0.849220
      5          6           0       -0.249153    1.587813    0.181358
      6          6           0        2.301509   -1.338253    0.550780
      7          6           0        0.396577   -0.747685    2.123238
      8          1           0       -1.466273   -1.039119   -1.615623
      9          1           0        1.454223    0.708450   -0.851982
     10          1           0       -1.109314    1.262272   -0.325584
     11          1           0        0.005292    2.541291   -0.269004
     12          1           0       -0.556933    1.760668    1.204984
     13          1           0        2.805998   -1.063190   -0.368070
     14          1           0        3.033059   -1.314294    1.355710
     15          1           0        1.971763   -2.371333    0.459118
     16          1           0       -0.454664   -0.104379    2.298244
     17          1           0        0.036393   -1.774058    2.096282
     18          1           0        1.057597   -0.672388    2.983899
 ---------------------------------------------------------------------

 Alpha  occ. eigenvalues --  -20.69438 -20.67418 -11.22912 -11.21594 -11.21412
 Alpha  occ. eigenvalues --  -11.21062 -11.19658  -1.58465  -1.21035  -1.09615
 Alpha  occ. eigenvalues --   -0.99387  -0.93985  -0.87609  -0.77857  -0.76804
 Alpha  occ. eigenvalues --   -0.70314  -0.67727  -0.62817  -0.59484  -0.59363
 Alpha  occ. eigenvalues --   -0.55595  -0.53721  -0.53291  -0.52068  -0.51756
 Alpha  occ. eigenvalues --   -0.50314  -0.49594  -0.46199  -0.32864
 Alpha virt. eigenvalues --    0.19462   0.21019   0.24216   0.27602   0.28017
 Alpha virt. eigenvalues --    0.30495   0.32483   0.32823   0.34021   0.34776
 Alpha virt. eigenvalues --    0.36766   0.39229   0.40047   0.43146   0.48595

  Beta  occ. eigenvalues --  -20.66762 -20.65431 -11.22452 -11.21652 -11.21509
  Beta  occ. eigenvalues --  -11.21471 -11.19334  -1.52436  -1.11498  -1.09234
  Beta  occ. eigenvalues --   -0.99033  -0.94011  -0.87208  -0.75743  -0.70197
  Beta  occ. eigenvalues --   -0.65819  -0.62789  -0.60356  -0.59365  -0.58318
  Beta  occ. eigenvalues --   -0.53567  -0.53329  -0.52283  -0.51567  -0.50104
  Beta  occ. eigenvalues --   -0.48398  -0.46185  -0.33297
  Beta virt. eigenvalues --    0.11955   0.20082   0.21067   0.24329   0.27719
  Beta virt. eigenvalues --    0.28000   0.30540   0.32641   0.33297   0.34169
  Beta virt. eigenvalues --    0.36701   0.37337   0.39689   0.40403   0.43315

 Mulliken atomic charges:
              1
     1  O   -0.103275
     2  O   -0.390833
     3  C   -0.220665
     4  C    0.053016
     5  C   -0.532306
     6  C   -0.504148
     7  C   -0.512908
     8  H    0.470775
     9  H    0.173135
    10  H    0.238790
    11  H    0.165625
    12  H    0.163923
    13  H    0.170910
    14  H    0.165276
    15  H    0.155791
    16  H    0.176590
    17  H    0.160421
    18  H    0.169884
 Sum of Mulliken atomic charges =   0.00000

 Dipole moment (field-independent basis, Debye):
    X=              0.1567    Y=             -1.8774    Z=              0.5924  Tot=              1.9748
 Quadrupole moment (field-independent basis, Debye-Ang):
   XX=            -45.7543   YY=            -42.3984   ZZ=            -46.3823
   XY=              2.2418   XZ=             -1.5955   YZ=              1.8920

  Exact polarizability:  56.184 -10.402  65.424   2.150  -8.548  61.041
 Approx polarizability:  46.931  -5.968  55.323  -0.452  -5.758  52.282

 Normal termination of Gaussian 09 at Thu Apr 26 14:36:39 2018.
