 Gaussian 09, Revision B.01,
 Gaussian 09:  EM64L-G09RevB.01 12-Aug-2010

 ----------------------------------------
 #p hf/6-31g* opt=(ts,calcfc,noeigentest)
 ----------------------------------------

 ------------------------------
 Gaussian input prepared by ASE
 ------------------------------
 Symbolic Z-matrix:
 Charge =  0 Multiplicity = 2

 SCF Done:  E(UHF) =  -345.258294918     A.U. after   23 cycles

  Exact polarizability:   0.000   0.000   0.000   0.000   0.000   0.000
 Approx polarizability:  60.489  -1.870  52.240  -2.340   1.431  51.158

 SCF Done:  E(UHF) =  -345.258718176     A.U. after   20 cycles
 SCF Done:  E(UHF) =  -345.258732367     A.U. after   17 cycles
 SCF Done:  E(UHF) =  -345.258734964     A.U. after   15 cycles
 SCF Done:  E(UHF) =  -345.258742990     A.U. after   24 cycles
 SCF Done:  E(UHF) =  -345.258753325     A.U. after   14 cycles
 SCF Done:  E(UHF) =  -345.258757543     A.U. after   15 cycles
 SCF Done:  E(UHF) =  -345.258757960     A.U. after   14 cycles
 SCF Done:  E(UHF) =  -345.258757986     A.U. after   12 cycles
 SCF Done:  E(UHF) =  -345.258757989     A.U. after   11 cycles
 Optimization completed.
    -- Stationary point found.

                         Standard orientation:
 ---------------------------------------------------------------------
 Center     Atomic      Atomic             Coordinates (Angstroms)
 Number     Number       Type             X           Y           Z
 ---------------------------------------------------------------------
      1          8           0       -2.586379   -0.190207   -0.453485
      2          8           0       -2.363976    1.144637   -0.269761
      3          6           0        0.364699   -0.146661    0.925320
      4          6           0        1.406038    0.011591    0.063868
      5          6           0       -0.660504   -1.179467    0.891871
      6          6           0        2.375114    1.154850    0.232791
      7          6           0        1.703917   -0.906125   -1.094838
      8          1           0       -1.823064    1.389192   -1.011490
      9          1           0        0.248690    0.593481    1.699117
     10          1           0       -1.670579   -0.709466    0.194038
     11          1           0       -1.151226   -1.363604    1.836240
     12          1           0       -0.433568   -2.092515    0.363928
     13          1           0        2.118225    1.782296    1.077925
     14          1           0        3.387146    0.785131    0.382482
     15          1           0        2.398261    1.780097   -0.657313
     16          1           0        0.971734   -1.691899   -1.218657
     17          1           0        1.742563   -0.341541   -2.023603
     18          1           0        2.679080   -1.371746   -0.970778
 ---------------------------------------------------------------------

 The electronic state is 2-A.
 Alpha  occ. eigenvalues --  -20.64353 -20.62569 -11.25060 -11.24475 -11.22574
 Alpha  occ. eigenvalues --  -11.22545 -11.22424  -1.50919  -1.18083  -1.11421
 Alpha  occ. eigenvalues --   -1.01479  -0.95125  -0.88258  -0.74136  -0.71927
 Alpha  occ. eigenvalues --   -0.71155  -0.64759  -0.62305  -0.61380  -0.61029
 Alpha  occ. eigenvalues --   -0.55854  -0.54951  -0.53498  -0.51776  -0.51244
 Alpha  occ. eigenvalues --   -0.48656  -0.48255  -0.44005  -0.33619
 Alpha virt. eigenvalues --    0.18924   0.21999   0.24187   0.26268   0.26787
 Alpha virt. eigenvalues --    0.29367   0.31398   0.31623   0.33138   0.34277
 Alpha virt. eigenvalues --    0.35803   0.38041   0.38951   0.42581   0.45786

  Beta  occ. eigenvalues --  -20.62449 -20.61531 -11.23834 -11.23589 -11.22896
  Beta  occ. eigenvalues --  -11.22754 -11.22611  -1.47207  -1.12510  -1.09870
  Beta  occ. eigenvalues --   -0.99834  -0.95170  -0.86261  -0.71966  -0.71042
  Beta  occ. eigenvalues --   -0.64557  -0.63165  -0.61215  -0.59402  -0.58708
  Beta  occ. eigenvalues --   -0.55250  -0.54409  -0.53416  -0.51407  -0.48436
  Beta  occ. eigenvalues --   -0.45932  -0.45744  -0.35321
  Beta virt. eigenvalues --    0.07193   0.20515   0.21901   0.24397   0.26571
  Beta virt. eigenvalues --    0.26768   0.29541   0.31835   0.32886   0.33594
  Beta virt. eigenvalues --    0.35828   0.36332   0.38849   0.39925   0.43269

 Mulliken atomic charges:
              1
     1  O   -0.319946
     2  O   -0.439809
     3  C   -0.181940
     4  C    0.059124
     5  C   -0.518090
     6  C   -0.509550
     7  C   -0.515368
     8  H    0.455573
     9  H    0.190404
    10  H    0.337007
    11  H    0.206174
    12  H    0.197620
    13  H    0.177002
    14  H    0.171115
    15  H    0.166633
    16  H    0.178774
    17  H    0.170538
    18  H    0.174739
 Sum of Mulliken atomic charges =   0.00000

 Dipole moment (field-independent basis, Debye):
    X=              3.0862    Y=             -0.0561    Z=             -0.5898  Tot=              3.1425
 Quadrupole moment (field-independent basis, Debye-Ang):
   XX=            -53.4390   YY=            -42.4209   ZZ=            -42.0571
   XY=              1.4420   XZ=             -0.6711   YZ=             -2.0431

 Normal termination of Gaussian 09 at Thu Apr 26 13:23:17 2018.
