 Gaussian 09, Revision B.01,
 Gaussian 09:  EM64L-G09RevB.01 12-Aug-2010

 -----------------------------------------------
 #p hf/6-31g* Opt=(ModRedun,Loose) Int(Grid=SG1)
 -----------------------------------------------

 ------------------------------
 Gaussian input prepared by ASE
 ------------------------------
 Symbolic Z-matrix:
 Charge =  0 Multiplicity = 2

 SCF Done:  E(UHF) =  -345.206130600     A.U. after   30 cycles
 SCF Done:  E(UHF) =  -345.216817870     A.U. after   47 cycles
 SCF Done:  E(UHF) =  -345.222366071     A.U. after   27 cycles
 SCF Done:  E(UHF) =  -345.236559034     A.U. after   29 cycles
 SCF Done:  E(UHF) =  -345.235318375     A.U. after   27 cycles
 SCF Done:  E(UHF) =  -345.238211615     A.U. after   30 cycles
 SCF Done:  E(UHF) =  -345.244194923     A.U. after   25 cycles
 SCF Done:  E(UHF) =  -345.246666988     A.U. after   26 cycles
 SCF Done:  E(UHF) =  -345.181981831     A.U. after   27 cycles
 SCF Done:  E(UHF) =  -345.251005582     A.U. after   24 cycles
 SCF Done:  E(UHF) =  -345.257397967     A.U. after   20 cycles
 SCF Done:  E(UHF) =  -345.257113198     A.U. after   20 cycles
 SCF Done:  E(UHF) =  -345.257483571     A.U. after   18 cycles
 SCF Done:  E(UHF) =  -345.257625750     A.U. after   17 cycles
 SCF Done:  E(UHF) =  -345.257985800     A.U. after   18 cycles
 SCF Done:  E(UHF) =  -345.258083260     A.U. after   19 cycles
 SCF Done:  E(UHF) =  -345.258217279     A.U. after   24 cycles
 SCF Done:  E(UHF) =  -345.258233625     A.U. after   18 cycles
 SCF Done:  E(UHF) =  -345.258289710     A.U. after   18 cycles
 SCF Done:  E(UHF) =  -345.258294918     A.U. after   16 cycles
 Optimization completed.
    -- Stationary point found.

                         Standard orientation:
 ---------------------------------------------------------------------
 Center     Atomic      Atomic             Coordinates (Angstroms)
 Number     Number       Type             X           Y           Z
 ---------------------------------------------------------------------
      1          8           0        2.493075   -0.102703    0.518289
      2          8           0        2.220969    1.193997    0.207566
      3          6           0       -0.333711   -0.222072   -0.943578
      4          6           0       -1.347465   -0.008656   -0.064759
      5          6           0        0.703792   -1.246304   -0.865739
      6          6           0       -2.342202    1.102244   -0.292937
      7          6           0       -1.596910   -0.839488    1.169150
      8          1           0        1.530694    1.435542    0.814412
      9          1           0       -0.252192    0.455748   -1.776764
     10          1           0        1.730352   -0.740007   -0.226706
     11          1           0        1.153332   -1.499419   -1.815425
     12          1           0        0.484819   -2.124201   -0.277698
     13          1           0       -2.122155    1.664765   -1.192499
     14          1           0       -3.350878    0.704788   -0.382348
     15          1           0       -2.352278    1.795587    0.545463
     16          1           0       -0.825300   -1.573994    1.353170
     17          1           0       -1.661687   -0.201911    2.047729
     18          1           0       -2.548076   -1.361591    1.091006
 ---------------------------------------------------------------------

 The electronic state is 2-A.
 Alpha  occ. eigenvalues --  -20.64941 -20.62987 -11.25054 -11.24336 -11.22569
 Alpha  occ. eigenvalues --  -11.22517 -11.22482  -1.51697  -1.18444  -1.11395
 Alpha  occ. eigenvalues --   -1.01317  -0.95140  -0.88258  -0.74800  -0.72041
 Alpha  occ. eigenvalues --   -0.71450  -0.64696  -0.62777  -0.61382  -0.61028
 Alpha  occ. eigenvalues --   -0.55729  -0.54981  -0.53467  -0.51799  -0.51468
 Alpha  occ. eigenvalues --   -0.48697  -0.48526  -0.44251  -0.33648
 Alpha virt. eigenvalues --    0.18778   0.21391   0.24540   0.26532   0.26816
 Alpha virt. eigenvalues --    0.29489   0.31403   0.31565   0.32986   0.34288
 Alpha virt. eigenvalues --    0.35664   0.38026   0.38785   0.42532   0.45593

  Beta  occ. eigenvalues --  -20.62830 -20.62005 -11.23796 -11.23619 -11.22794
  Beta  occ. eigenvalues --  -11.22744 -11.22663  -1.47764  -1.12580  -1.09930
  Beta  occ. eigenvalues --   -0.99777  -0.95186  -0.86332  -0.72299  -0.71172
  Beta  occ. eigenvalues --   -0.64522  -0.63495  -0.61185  -0.59617  -0.58752
  Beta  occ. eigenvalues --   -0.55143  -0.54457  -0.53386  -0.51402  -0.48393
  Beta  occ. eigenvalues --   -0.46284  -0.45656  -0.35390
  Beta virt. eigenvalues --    0.07361   0.20278   0.21296   0.24883   0.26702
  Beta virt. eigenvalues --    0.26855   0.29636   0.31831   0.32829   0.33382
  Beta virt. eigenvalues --    0.35870   0.36237   0.38647   0.39869   0.43130

 Mulliken atomic charges:
              1
     1  O   -0.299401
     2  O   -0.433484
     3  C   -0.184288
     4  C    0.053303
     5  C   -0.520662
     6  C   -0.509301
     7  C   -0.515665
     8  H    0.457067
     9  H    0.188673
    10  H    0.327190
    11  H    0.201071
    12  H    0.195728
    13  H    0.176837
    14  H    0.171799
    15  H    0.165547
    16  H    0.180874
    17  H    0.169441
    18  H    0.175271
 Sum of Mulliken atomic charges =   0.00000

 Dipole moment (field-independent basis, Debye):
    X=             -3.0476    Y=             -0.1266    Z=              0.3477  Tot=              3.0700
 Quadrupole moment (field-independent basis, Debye-Ang):
   XX=            -52.9978   YY=            -42.4813   ZZ=            -42.7107
   XY=             -2.2580   XZ=             -1.3776   YZ=              1.6567

 Normal termination of Gaussian 09 at Thu Apr 26 13:15:20 2018.
