 Gaussian 09, Revision B.01,
 Gaussian 09:  EM64L-G09RevB.01 12-Aug-2010

 ---------------------------------------------------
 #p hf/6-31g* opt=(verytight,gdiis) freq IOP(2/16=3)
 ---------------------------------------------------

 ------------------------------
 Gaussian input prepared by ASE
 ------------------------------
 Symbolic Z-matrix:
 Charge =  0 Multiplicity = 1

 SCF Done:  E(RHF) =  -150.748932126     A.U. after   12 cycles
 SCF Done:  E(RHF) =  -150.762953348     A.U. after   14 cycles
 SCF Done:  E(RHF) =  -150.764067355     A.U. after   12 cycles
 SCF Done:  E(RHF) =  -150.764496666     A.U. after   14 cycles
 SCF Done:  E(RHF) =  -150.764654587     A.U. after   12 cycles
 SCF Done:  E(RHF) =  -150.764765797     A.U. after   12 cycles
 SCF Done:  E(RHF) =  -150.764785827     A.U. after   14 cycles
 SCF Done:  E(RHF) =  -150.764786860     A.U. after    9 cycles
 SCF Done:  E(RHF) =  -150.764786866     A.U. after   14 cycles
 SCF Done:  E(RHF) =  -150.764786866     A.U. after    6 cycles
 SCF Done:  E(RHF) =  -150.764786866     A.U. after   13 cycles
 Optimization completed.
    -- Stationary point found.
 Normal termination of Gaussian 09 at Mon Apr 30 11:55:13 2018.

 ----------------------------------------------------------------------
 #P Geom=AllCheck Guess=TCheck SCRF=Check Test GenChk RHF/6-31G(d) Freq
 ----------------------------------------------------------------------

 Gaussian input prepared by ASE
 ------------------------------
 Redundant internal coordinates taken from checkpoint file:
 /home/harms.n/Code/AutoTST/ipython_notebooks/Gau-16225.chk
 Charge =  0 Multiplicity = 1

                         Standard orientation:
 ---------------------------------------------------------------------
 Center     Atomic      Atomic             Coordinates (Angstroms)
 Number     Number       Type             X           Y           Z
 ---------------------------------------------------------------------
      1          8           0       -0.688585   -0.115652   -0.054644
      2          8           0        0.688585    0.115652   -0.054644
      3          1           0       -1.014848    0.627770    0.437152
      4          1           0        1.014848   -0.627769    0.437153
 ---------------------------------------------------------------------

 SCF Done:  E(RHF) =  -150.764786866     A.U. after    1 cycles

 The electronic state is 1-A.
 Alpha  occ. eigenvalues --  -20.62839 -20.62804  -1.49824  -1.20570  -0.72536
 Alpha  occ. eigenvalues --   -0.71475  -0.61849  -0.50823  -0.46868
 Alpha virt. eigenvalues --    0.22348   0.23102   0.34740   1.05753   1.06493
 Alpha virt. eigenvalues --    1.07013   1.09069   1.16769   1.22182   1.27079
 Alpha virt. eigenvalues --    1.34813   1.44178   1.56603   1.78098   1.78625

 Mulliken atomic charges:
              1
     1  O   -0.461923
     2  O   -0.461923
     3  H    0.461923
     4  H    0.461923
 Sum of Mulliken atomic charges =   0.00000

 Dipole moment (field-independent basis, Debye):
    X=              0.0000    Y=              0.0000    Z=              1.9512  Tot=              1.9512
 Quadrupole moment (field-independent basis, Debye-Ang):
   XX=            -10.0024   YY=            -10.3008   ZZ=            -11.4480
   XY=             -3.3160   XZ=              0.0000   YZ=              0.0000

  Exact polarizability:  14.290  -1.193   7.683   0.000   0.000   5.877
 Approx polarizability:  11.061  -0.499   6.823   0.000   0.000   5.306

                     1                      2                      3
                     A                      A                      A
 Frequencies --   398.5693              1150.6961              1493.0191
 Red. masses --     1.0830                14.6146                 1.1057
 Frc consts  --     0.1014                11.4014                 1.4522
 IR Inten    --   235.8257                 1.8736               118.8204
 Raman Activ --     5.2949                24.8449                 1.9430

                     4                      5                      6
                     A                      A                      A
 Frequencies --  1634.5099              4090.6279              4092.5367
 Red. masses --     1.0952                 1.0698                 1.0674
 Frc consts  --     1.7239                10.5475                10.5333
 IR Inten    --     0.4909                23.7431                89.0972
 Raman Activ --     5.4839                87.2796                35.9144

 - Thermochemistry -
 -------------------
 Temperature   298.150 Kelvin.  Pressure   1.00000 Atm.
 Atom     1 has atomic number  8 and mass  15.99491

 Molecular mass:    34.00548 amu.
 Principal axes and moments of inertia in atomic units:
                           1         2         3
     Eigenvalues --     5.64884  63.57041  65.94375
           X            0.99694  -0.07813   0.00000
           Y            0.07813   0.99694   0.00000
           Z            0.00000   0.00000   1.00000
 This molecule is an asymmetric top.
 Rotational symmetry number  1.
 Rotational temperatures (Kelvin)     15.33303     1.36249     1.31345
 Rotational constants (GHZ):         319.48890    28.38964    27.36789
 Zero-point vibrational energy      76919.6 (Joules/Mol)
                                   18.38423 (Kcal/Mol)
 Warning -- explicit consideration of   1 degrees of freedom as
           vibrations may cause significant error
 Vibrational temperatures:    573.45  1655.59  2148.12  2351.69  5885.49
          (Kelvin)           5888.24

 Zero-point correction=                           0.029297 (Hartree/Particle)
 Thermal correction to Energy=                    0.032469
 Thermal correction to Enthalpy=                  0.033413
 Thermal correction to Gibbs Free Energy=         0.007114
 Sum of electronic and zero-point Energies=           -150.735490
 Sum of electronic and thermal Energies=              -150.732318
 Sum of electronic and thermal Enthalpies=            -150.731374
 Sum of electronic and thermal Free Energies=         -150.757673

                     E (Thermal)             CV                S
                      KCal/Mol        Cal/Mol-Kelvin    Cal/Mol-Kelvin
 Total                   20.374              7.797             55.351
 Electronic               0.000              0.000              0.000
 Translational            0.889              2.981             36.503
 Rotational               0.889              2.981             17.811
 Vibrational             18.597              1.836              1.037
 Vibration     1          0.765              1.473              0.968

 Optimization completed.
    -- Stationary point found.
 Normal termination of Gaussian 09 at Mon Apr 30 11:55:34 2018.
