 Gaussian 09, Revision B.01,
 Gaussian 09:  EM64L-G09RevB.01 12-Aug-2010

 ---------------------------------------------------
 #p hf/6-31g* opt=(verytight,gdiis) freq IOP(2/16=3)
 ---------------------------------------------------

 ------------------------------
 Gaussian input prepared by ASE
 ------------------------------
 Symbolic Z-matrix:
 Charge =  0 Multiplicity = 1

 SCF Done:  E(RHF) =  -195.123346964     A.U. after   12 cycles
 SCF Done:  E(RHF) =  -195.136328952     A.U. after   12 cycles
 SCF Done:  E(RHF) =  -195.143475258     A.U. after   13 cycles
 SCF Done:  E(RHF) =  -195.144311334     A.U. after   10 cycles
 SCF Done:  E(RHF) =  -195.144596168     A.U. after    9 cycles
 SCF Done:  E(RHF) =  -195.144680793     A.U. after    9 cycles
 SCF Done:  E(RHF) =  -195.144686564     A.U. after   14 cycles
 SCF Done:  E(RHF) =  -195.144688503     A.U. after    7 cycles
 SCF Done:  E(RHF) =  -195.144691091     A.U. after    8 cycles
 SCF Done:  E(RHF) =  -195.144693555     A.U. after    8 cycles
 SCF Done:  E(RHF) =  -195.145758318     A.U. after   14 cycles
 SCF Done:  E(RHF) =  -195.145766239     A.U. after    8 cycles
 SCF Done:  E(RHF) =  -195.145767724     A.U. after    7 cycles
 SCF Done:  E(RHF) =  -195.145767565     A.U. after    8 cycles
 SCF Done:  E(RHF) =  -195.145768082     A.U. after    8 cycles
 SCF Done:  E(RHF) =  -195.145768090     A.U. after   14 cycles
 SCF Done:  E(RHF) =  -195.145768091     A.U. after    5 cycles
 SCF Done:  E(RHF) =  -195.145768091     A.U. after    4 cycles
 SCF Done:  E(RHF) =  -195.145768091     A.U. after   14 cycles
 Optimization completed.
    -- Stationary point found.
 Normal termination of Gaussian 09 at Mon Apr 30 11:36:11 2018.

 ----------------------------------------------------------------------
 #P Geom=AllCheck Guess=TCheck SCRF=Check Test GenChk RHF/6-31G(d) Freq
 ----------------------------------------------------------------------

 Gaussian input prepared by ASE
 ------------------------------
 Redundant internal coordinates taken from checkpoint file:
 /home/harms.n/Code/AutoTST/ipython_notebooks/Gau-24744.chk
 Charge =  0 Multiplicity = 1

                         Standard orientation:
 ---------------------------------------------------------------------
 Center     Atomic      Atomic             Coordinates (Angstroms)
 Number     Number       Type             X           Y           Z
 ---------------------------------------------------------------------
      1          6           0       -0.728130   -0.664632    0.000000
      2          6           0        0.441425   -0.042429    0.000000
      3          6           0       -2.112552   -0.075275    0.000000
      4          6           0        1.733640   -0.825217    0.000000
      5          6           0        0.635288    1.454710    0.000000
      6          1           0       -0.712416   -1.743903    0.000000
      7          1           0       -2.667724   -0.409921   -0.873013
      8          1           0       -2.119475    1.006354    0.000000
      9          1           0       -2.667724   -0.409922    0.873013
     10          1           0        2.334694   -0.581411   -0.873341
     11          1           0        1.558488   -1.894583    0.000000
     12          1           0        2.334694   -0.581411    0.873341
     13          1           0        1.206990    1.761447    0.872941
     14          1           0       -0.292546    2.008962   -0.000001
     15          1           0        1.206991    1.761446   -0.872941
 ---------------------------------------------------------------------

 SCF Done:  E(RHF) =  -195.145768091     A.U. after    1 cycles

 The electronic state is 1-A.
 Alpha  occ. eigenvalues --  -11.22628 -11.21326 -11.21312 -11.21233 -11.21186
 Alpha  occ. eigenvalues --   -1.09277  -0.98979  -0.93744  -0.87212  -0.70094
 Alpha  occ. eigenvalues --   -0.62843  -0.59221  -0.59007  -0.55557  -0.53335
 Alpha  occ. eigenvalues --   -0.53180  -0.51589  -0.50283  -0.46023  -0.33035
 Alpha virt. eigenvalues --    0.20034   0.23800   0.26742   0.28087   0.30200
 Alpha virt. eigenvalues --    0.31813   0.32083   0.33565   0.35962   0.36092
 Alpha virt. eigenvalues --    0.39577   0.41016   0.42791   0.50701   0.63404

 Mulliken atomic charges:
              1
     1  C   -0.211012
     2  C    0.066441
     3  C   -0.509781
     4  C   -0.505248
     5  C   -0.512396
     6  H    0.165018
     7  H    0.167634
     8  H    0.169540
     9  H    0.167634
    10  H    0.162886
    11  H    0.169862
    12  H    0.162886
    13  H    0.166813
    14  H    0.172911
    15  H    0.166813
 Sum of Mulliken atomic charges =   0.00000

 Dipole moment (field-independent basis, Debye):
    X=              0.0746    Y=              0.1450    Z=              0.0000  Tot=              0.1631
 Quadrupole moment (field-independent basis, Debye-Ang):
   XX=            -32.5145   YY=            -32.5857   ZZ=            -34.5776
   XY=              0.2831   XZ=              0.0000   YZ=              0.0000

  Exact polarizability:  67.973   6.717  51.086   0.000   0.000  37.636
 Approx polarizability:  52.604   5.938  43.773   0.000   0.000  35.564

                     1                      2                      3
                     A                      A                      A
 Frequencies --   119.3827               137.1692               192.6895
 Red. masses --     1.0370                 1.0288                 1.1812
 Frc consts  --     0.0087                 0.0114                 0.0258
 IR Inten    --     0.1541                 0.1928                 0.8489
 Raman Activ --     0.1330                 0.0890                 0.0952

                     4                      5                      6
                     A                      A                      A
 Frequencies --   283.6582               318.9010               410.4727
 Red. masses --     1.8524                 2.6596                 2.2459
 Frc consts  --     0.0878                 0.1594                 0.2230
 IR Inten    --     1.5479                 0.2240                 0.3047
 Raman Activ --     0.4741                 0.2956                 1.0519

                     7                      8                      9
                     A                      A                      A
 Frequencies --   494.5518               559.8728               818.0676
 Red. masses --     2.2288                 2.8330                 2.9304
 Frc consts  --     0.3212                 0.5232                 1.1555
 IR Inten    --     2.5621                 1.7484                 1.2133
 Raman Activ --     7.6278                 3.5547                12.4876

                    10                     11                     12
                     A                      A                      A
 Frequencies --   919.1376              1036.6037              1051.8073
 Red. masses --     1.1266                 1.7307                 1.5054
 Frc consts  --     0.5608                 1.0957                 0.9812
 IR Inten    --    11.8059                 2.3759                 0.8512
 Raman Activ --    10.9294                 6.5863                 3.1516

                    13                     14                     15
                     A                      A                      A
 Frequencies --  1118.4305              1160.3893              1176.8938
 Red. masses --     1.2326                 1.6718                 1.5015
 Frc consts  --     0.9084                 1.3263                 1.2253
 IR Inten    --     2.3148                 2.5172                 3.5135
 Raman Activ --     0.8971                 2.0848                 0.9242

                    16                     17                     18
                     A                      A                      A
 Frequencies --  1216.5557              1227.3308              1342.3128
 Red. masses --     1.6560                 1.7839                 2.4480
 Frc consts  --     1.4441                 1.5833                 2.5988
 IR Inten    --     0.0164                 6.4055                 3.4716
 Raman Activ --     0.6794                10.3312                 1.7924

                    19                     20                     21
                     A                      A                      A
 Frequencies --  1503.9304              1566.3102              1569.8098
 Red. masses --     1.2839                 1.2668                 1.4256
 Frc consts  --     1.7109                 1.8311                 2.0698
 IR Inten    --     5.7135                 3.2615                 0.9160
 Raman Activ --    13.4364                 1.0455                11.8242

                    22                     23                     24
                     A                      A                      A
 Frequencies --  1579.4401              1619.0943              1630.4384
 Red. masses --     1.2180                 1.0471                 1.0475
 Frc consts  --     1.7903                 1.6172                 1.6406
 IR Inten    --     0.3509                 0.6229                 1.0543
 Raman Activ --    23.4685                23.2300                 6.0688

                    25                     26                     27
                     A                      A                      A
 Frequencies --  1630.5707              1639.3422              1644.6893
 Red. masses --     1.0454                 1.0429                 1.0564
 Frc consts  --     1.6376                 1.6514                 1.6837
 IR Inten    --     1.1298                14.5043                 5.5023
 Raman Activ --    20.5585                 2.5438                 9.2376

                    28                     29                     30
                     A                      A                      A
 Frequencies --  1645.3616              1916.2589              3185.1887
 Red. masses --     1.0743                 6.3900                 1.0401
 Frc consts  --     1.7136                13.8249                 6.2173
 IR Inten    --     4.6573                 1.5204                25.7914
 Raman Activ --    55.4050                39.9897                41.6985

                    31                     32                     33
                     A                      A                      A
 Frequencies --  3192.5972              3196.1283              3227.5319
 Red. masses --     1.0414                 1.0436                 1.1013
 Frc consts  --     6.2542                 6.2812                 6.7591
 IR Inten    --   107.9685                 6.5779                 7.0965
 Raman Activ --     4.8674               401.8395                15.2023

                    34                     35                     36
                     A                      A                      A
 Frequencies --  3233.5728              3234.5166              3277.8778
 Red. masses --     1.1012                 1.1009                 1.1001
 Frc consts  --     6.7841                 6.7862                 6.9640
 IR Inten    --     5.7943               111.1712                27.3194
 Raman Activ --   233.3698                57.8336                42.1871

                    37                     38                     39
                     A                      A                      A
 Frequencies --  3290.4984              3312.7292              3321.0838
 Red. masses --     1.0973                 1.0903                 1.0928
 Frc consts  --     6.9999                 7.0497                 7.1018
 IR Inten    --    12.2397                16.6145                77.0295
 Raman Activ --    46.9669               116.4676                33.2653

 - Thermochemistry -
 -------------------
 Temperature   298.150 Kelvin.  Pressure   1.00000 Atm.
 Atom     1 has atomic number  6 and mass  12.00000

 Molecular mass:    70.07825 amu.
 Principal axes and moments of inertia in atomic units:
                           1         2         3
     Eigenvalues --   223.52330 512.87770 703.47866
           X            0.99996  -0.00862   0.00000
           Y            0.00862   0.99996   0.00000
           Z            0.00000   0.00000   1.00000
 This molecule is an asymmetric top.
 Rotational symmetry number  1.
 Rotational temperatures (Kelvin)      0.38749     0.16888     0.12312
 Rotational constants (GHZ):           8.07406     3.51885     2.56545
 Zero-point vibrational energy     382812.2 (Joules/Mol)
                                   91.49430 (Kcal/Mol)
 Warning -- explicit consideration of   8 degrees of freedom as
           vibrations may cause significant error
 Vibrational temperatures:    171.76   197.36   277.24   408.12   458.83
          (Kelvin)            590.58   711.55   805.53  1177.02  1322.43
                             1491.44  1513.31  1609.17  1669.54  1693.29
                             1750.35  1765.85  1931.29  2163.82  2253.57
                             2258.60  2272.46  2329.51  2345.83  2346.02
                             2358.64  2366.34  2367.31  2757.07  4582.77
                             4593.43  4598.51  4643.69  4652.38  4653.74
                             4716.13  4734.29  4766.27  4778.29

 Zero-point correction=                           0.145805 (Hartree/Particle)
 Thermal correction to Energy=                    0.152444
 Thermal correction to Enthalpy=                  0.153388
 Thermal correction to Gibbs Free Energy=         0.116108
 Sum of electronic and zero-point Energies=           -194.999963
 Sum of electronic and thermal Energies=              -194.993324
 Sum of electronic and thermal Enthalpies=            -194.992380
 Sum of electronic and thermal Free Energies=         -195.029660

                     E (Thermal)             CV                S
                      KCal/Mol        Cal/Mol-Kelvin    Cal/Mol-Kelvin
 Total                   95.660             22.360             78.462
 Electronic               0.000              0.000              0.000
 Translational            0.889              2.981             38.658
 Rotational               0.889              2.981             25.892
 Vibrational             93.882             16.399             13.912
 Vibration     1          0.609              1.933              3.110
 Vibration     2          0.614              1.916              2.843
 Vibration     3          0.635              1.850              2.202
 Vibration     4          0.682              1.704              1.512
 Vibration     5          0.705              1.637              1.316
 Vibration     6          0.775              1.447              0.925
 Vibration     7          0.850              1.262              0.672
 Vibration     8          0.915              1.118              0.524

 Optimization completed.
    -- Stationary point found.
 Normal termination of Gaussian 09 at Mon Apr 30 11:36:47 2018.
