 Gaussian 09, Revision B.01,
 Gaussian 09:  EM64L-G09RevB.01 12-Aug-2010

 ---------------------------------------------------
 #p hf/6-31g* opt=(verytight,gdiis) freq IOP(2/16=3)
 ---------------------------------------------------

 ------------------------------
 Gaussian input prepared by ASE
 ------------------------------
 Symbolic Z-matrix:
 Charge =  0 Multiplicity = 2

 SCF Done:  E(UHF) =  -150.168524359     A.U. after   18 cycles
 SCF Done:  E(UHF) =  -150.170504834     A.U. after   15 cycles
 SCF Done:  E(UHF) =  -150.170519707     A.U. after   13 cycles
 SCF Done:  E(UHF) =  -150.170529930     A.U. after   12 cycles
 SCF Done:  E(UHF) =  -150.170530030     A.U. after   11 cycles
 SCF Done:  E(UHF) =  -150.170530031     A.U. after    8 cycles
 Optimization completed.
    -- Stationary point found.
 Normal termination of Gaussian 09 at Mon Apr 30 11:38:28 2018.

 ----------------------------------------------------------------------
 #P Geom=AllCheck Guess=TCheck SCRF=Check Test GenChk UHF/6-31G(d) Freq
 ----------------------------------------------------------------------

 Gaussian input prepared by ASE
 ------------------------------
 Redundant internal coordinates taken from checkpoint file:
 /home/harms.n/Code/AutoTST/ipython_notebooks/Gau-43385.chk
 Charge =  0 Multiplicity = 2

                         Standard orientation:
 ---------------------------------------------------------------------
 Center     Atomic      Atomic             Coordinates (Angstroms)
 Number     Number       Type             X           Y           Z
 ---------------------------------------------------------------------
      1          8           0        0.054011    0.708017    0.000000
      2          8           0        0.054011   -0.600803    0.000000
      3          1           0       -0.864169   -0.857710    0.000000
 ---------------------------------------------------------------------

 SCF Done:  E(UHF) =  -150.170530031     A.U. after    1 cycles

 The electronic state is 2-A".
 Alpha  occ. eigenvalues --  -20.69241 -20.67719  -1.58799  -1.20265  -0.77765
 Alpha  occ. eigenvalues --   -0.75503  -0.67586  -0.51650  -0.51507
 Alpha virt. eigenvalues --    0.20790   0.36911   0.95626   1.02554   1.04641
 Alpha virt. eigenvalues --    1.05807   1.15276   1.16896   1.21381   1.33887
 Alpha virt. eigenvalues --    1.54220   1.73937   1.77631   1.84076   2.01970

  Beta  occ. eigenvalues --  -20.66910 -20.65264  -1.52749  -1.10256  -0.75671
  Beta  occ. eigenvalues --   -0.65057  -0.57140  -0.47889
  Beta virt. eigenvalues --    0.13957   0.21124   0.40449   0.97280   1.02807
  Beta virt. eigenvalues --    1.05503   1.14435   1.16842   1.22598   1.29664
  Beta virt. eigenvalues --    1.34636   1.55350   1.78414   1.79398   1.87702

 Mulliken atomic charges:
              1
     1  O   -0.076202
     2  O   -0.391372
     3  H    0.467574
 Sum of Mulliken atomic charges =   0.00000

 Dipole moment (field-independent basis, Debye):
    X=             -1.8656    Y=             -0.9582    Z=              0.0000  Tot=              2.0973
 Quadrupole moment (field-independent basis, Debye-Ang):
   XX=             -9.6288   YY=            -10.7704   ZZ=            -10.6951
   XY=              1.7643   XZ=              0.0000   YZ=              0.0000

  Exact polarizability:   6.548   1.451  12.403   0.000   0.000   4.608
 Approx polarizability:   5.703   0.860  10.554   0.000   0.000   4.198

                     1                      2                      3
                    A'                     A'                     A'
 Frequencies --  1250.9079              1622.8951              4014.7637
 Red. masses --    15.4553                 1.1195                 1.0682
 Frc consts  --    14.2488                 1.7373                10.1442
 IR Inten    --    44.8961                58.4736                55.5782
 Raman Activ --     3.6262                 5.0082                68.5249

 - Thermochemistry -
 -------------------
 Temperature   298.150 Kelvin.  Pressure   1.00000 Atm.
 Atom     1 has atomic number  8 and mass  15.99491

 Molecular mass:    32.99765 amu.
 Principal axes and moments of inertia in atomic units:
                           1         2         3
     Eigenvalues --     2.76773  51.99407  54.76179
           X            0.05941   0.99823   0.00000
           Y            0.99823  -0.05941   0.00000
           Z            0.00000   0.00000   1.00000
 This molecule is an asymmetric top.
 Rotational symmetry number  1.
 Rotational temperatures (Kelvin)     31.29419     1.66584     1.58165
 Rotational constants (GHZ):         652.06598    34.71052    32.95621
 Zero-point vibrational energy      41202.8 (Joules/Mol)
                                    9.84770 (Kcal/Mol)
 Vibrational temperatures:   1799.78  2334.98  5776.34
          (Kelvin)

 Zero-point correction=                           0.015693 (Hartree/Particle)
 Thermal correction to Energy=                    0.018542
 Thermal correction to Enthalpy=                  0.019487
 Thermal correction to Gibbs Free Energy=        -0.006431
 Sum of electronic and zero-point Energies=           -150.154837
 Sum of electronic and thermal Energies=              -150.151988
 Sum of electronic and thermal Enthalpies=            -150.151043
 Sum of electronic and thermal Free Energies=         -150.176961

                     E (Thermal)             CV                S
                      KCal/Mol        Cal/Mol-Kelvin    Cal/Mol-Kelvin
 Total                   11.636              6.184             54.549
 Electronic               0.000              0.000              1.377
 Translational            0.889              2.981             36.413
 Rotational               0.889              2.981             16.718
 Vibrational              9.858              0.222              0.040

 Optimization completed.
    -- Stationary point found.
 Normal termination of Gaussian 09 at Mon Apr 30 11:39:04 2018.
