 Gaussian 09, Revision B.01,
 Gaussian 09:  EM64L-G09RevB.01 12-Aug-2010

 -------------------------------------------------
 #p hf/6-31g* opt=(ts,calcfc,noeigentest,ModRedun)
 -------------------------------------------------

 ------------------------------
 Gaussian input prepared by ASE
 ------------------------------
 Symbolic Z-matrix:
 Charge =  0 Multiplicity = 2

 SCF Done:  E(UHF) =  -345.258224091     A.U. after   23 cycles

  Exact polarizability:   0.000   0.000   0.000   0.000   0.000   0.000
 Approx polarizability:  61.927   1.064  52.342  -2.462  -0.573  49.556

 SCF Done:  E(UHF) =  -345.258393346     A.U. after   17 cycles
 SCF Done:  E(UHF) =  -345.258393823     A.U. after   12 cycles
 Optimization completed.
    -- Stationary point found.

                         Standard orientation:
 ---------------------------------------------------------------------
 Center     Atomic      Atomic             Coordinates (Angstroms)
 Number     Number       Type             X           Y           Z
 ---------------------------------------------------------------------
      1          8           0       -2.553400   -0.218451   -0.528596
      2          8           0       -2.329496    1.104283   -0.271665
      3          6           0        0.306900   -0.064443    0.887834
      4          6           0        1.387988    0.023357    0.068806
      5          6           0       -0.685065   -1.127983    0.928357
      6          6           0        1.763713   -1.008927   -0.964023
      7          6           0        2.325984    1.201278    0.157791
      8          1           0       -1.741665    1.373197   -0.968209
      9          1           0        0.135275    0.752610    1.567888
     10          1           0       -1.665889   -0.760334    0.136328
     11          1           0       -1.230356   -1.205531    1.855639
     12          1           0       -0.399038   -2.092571    0.541571
     13          1           0        2.737675   -1.437204   -0.737727
     14          1           0        1.051312   -1.818707   -1.038519
     15          1           0        1.844539   -0.548818   -1.946156
     16          1           0        3.335091    0.874525    0.399096
     17          1           0        2.385683    1.724753   -0.794244
     18          1           0        2.013418    1.911735    0.913835
 ---------------------------------------------------------------------

 The electronic state is 2-A.
 Alpha  occ. eigenvalues --  -20.64376 -20.62596 -11.25072 -11.24407 -11.22562
 Alpha  occ. eigenvalues --  -11.22509 -11.22472  -1.50966  -1.18080  -1.11481
 Alpha  occ. eigenvalues --   -1.01534  -0.95139  -0.88307  -0.74134  -0.71993
 Alpha  occ. eigenvalues --   -0.71265  -0.64756  -0.62303  -0.61377  -0.61063
 Alpha  occ. eigenvalues --   -0.55843  -0.54966  -0.53547  -0.51766  -0.51235
 Alpha  occ. eigenvalues --   -0.48611  -0.48275  -0.44127  -0.33639
 Alpha virt. eigenvalues --    0.18835   0.22065   0.24275   0.26371   0.26802
 Alpha virt. eigenvalues --    0.29358   0.31419   0.31587   0.33132   0.34041
 Alpha virt. eigenvalues --    0.35888   0.38038   0.38880   0.42586   0.45849

  Beta  occ. eigenvalues --  -20.62487 -20.61556 -11.23797 -11.23602 -11.22827
  Beta  occ. eigenvalues --  -11.22742 -11.22658  -1.47278  -1.12536  -1.09943
  Beta  occ. eigenvalues --   -0.99873  -0.95184  -0.86296  -0.71922  -0.71113
  Beta  occ. eigenvalues --   -0.64699  -0.63095  -0.61303  -0.59501  -0.58751
  Beta  occ. eigenvalues --   -0.55235  -0.54427  -0.53443  -0.51428  -0.48472
  Beta  occ. eigenvalues --   -0.45998  -0.45552  -0.35493
  Beta virt. eigenvalues --    0.07210   0.20505   0.21920   0.24478   0.26649
  Beta virt. eigenvalues --    0.26761   0.29526   0.31858   0.32840   0.33603
  Beta virt. eigenvalues --    0.35597   0.36448   0.38727   0.39900   0.43225

 Mulliken atomic charges:
              1
     1  O   -0.317173
     2  O   -0.439955
     3  C   -0.185713
     4  C    0.059165
     5  C   -0.516449
     6  C   -0.515027
     7  C   -0.510181
     8  H    0.455936
     9  H    0.192247
    10  H    0.332996
    11  H    0.208191
    12  H    0.196271
    13  H    0.174468
    14  H    0.178857
    15  H    0.171446
    16  H    0.171803
    17  H    0.166461
    18  H    0.176655
 Sum of Mulliken atomic charges =   0.00000

 Dipole moment (field-independent basis, Debye):
    X=              3.1265    Y=             -0.0006    Z=             -0.4161  Tot=              3.1541
 Quadrupole moment (field-independent basis, Debye-Ang):
   XX=            -53.3324   YY=            -42.1098   ZZ=            -42.6338
   XY=              1.2297   XZ=             -1.2296   YZ=             -1.9603

 Normal termination of Gaussian 09 at Mon Apr 30 12:21:03 2018.
