 Gaussian 09, Revision B.01,
 Gaussian 09:  EM64L-G09RevB.01 12-Aug-2010

 --------------------------
 #p hf/6-31g* irc=(calcall)
 --------------------------

 ------------------------------
 Gaussian input prepared by ASE
 ------------------------------
 Symbolic Z-matrix:
 Charge =  0 Multiplicity = 2

 SCF Done:  E(UHF) =  -345.258757985     A.U. after   23 cycles
 SCF Done:  E(UHF) =  -345.261032374     A.U. after   19 cycles
 SCF Done:  E(UHF) =  -345.266895686     A.U. after   19 cycles
 SCF Done:  E(UHF) =  -345.274317647     A.U. after   18 cycles
 SCF Done:  E(UHF) =  -345.281259588     A.U. after   18 cycles
 SCF Done:  E(UHF) =  -345.286028116     A.U. after   17 cycles
 SCF Done:  E(UHF) =  -345.288708769     A.U. after   16 cycles
 SCF Done:  E(UHF) =  -345.290818288     A.U. after   16 cycles
 SCF Done:  E(UHF) =  -345.292685808     A.U. after   16 cycles
 SCF Done:  E(UHF) =  -345.294316607     A.U. after   16 cycles
 SCF Done:  E(UHF) =  -345.260975821     A.U. after   27 cycles
 SCF Done:  E(UHF) =  -345.266464042     A.U. after   24 cycles
 SCF Done:  E(UHF) =  -345.272975193     A.U. after   24 cycles
 SCF Done:  E(UHF) =  -345.278524590     A.U. after   24 cycles
 SCF Done:  E(UHF) =  -345.282080594     A.U. after   24 cycles
 SCF Done:  E(UHF) =  -345.284483832     A.U. after   23 cycles
 SCF Done:  E(UHF) =  -345.286581352     A.U. after   22 cycles
 SCF Done:  E(UHF) =  -345.288515443     A.U. after   22 cycles
 SCF Done:  E(UHF) =  -345.290313625     A.U. after   22 cycles
 SCF Done:  E(UHF) =  -345.291998063     A.U. after   22 cycles

                          Input orientation:
 ---------------------------------------------------------------------
 Center     Atomic      Atomic             Coordinates (Angstroms)
 Number     Number       Type             X           Y           Z
 ---------------------------------------------------------------------
      1          8           0       -2.589268   -0.028291    0.133230
      2          8           0       -2.242463   -1.136447   -0.493151
      3          6           0        0.581093    0.482604   -0.716012
      4          6           0        1.475596    0.023213    0.152317
      5          6           0       -0.513023    1.463835   -0.458000
      6          6           0        1.567616    0.435705    1.605023
      7          6           0        2.522131   -0.977334   -0.277109
      8          1           0       -1.761968   -1.647610    0.151968
      9          1           0        0.612435    0.092139   -1.720700
     10          1           0       -1.398762    0.967661   -0.189474
     11          1           0       -0.761945    2.033672   -1.346825
     12          1           0       -0.305404    2.155609    0.348699
     13          1           0        2.524922    0.910955    1.807652
     14          1           0        0.785096    1.119002    1.904774
     15          1           0        1.510659   -0.437621    2.251517
     16          1           0        3.523522   -0.578722   -0.128869
     17          1           0        2.459697   -1.891321    0.310358
     18          1           0        2.418756   -1.241745   -1.322984
 ---------------------------------------------------------------------

 Alpha  occ. eigenvalues --  -20.69438 -20.67419 -11.22912 -11.21594 -11.21412
 Alpha  occ. eigenvalues --  -11.21062 -11.19658  -1.58466  -1.21035  -1.09615
 Alpha  occ. eigenvalues --   -0.99387  -0.93985  -0.87609  -0.77857  -0.76804
 Alpha  occ. eigenvalues --   -0.70314  -0.67727  -0.62817  -0.59484  -0.59363
 Alpha  occ. eigenvalues --   -0.55595  -0.53721  -0.53291  -0.52068  -0.51756
 Alpha  occ. eigenvalues --   -0.50313  -0.49595  -0.46199  -0.32864
 Alpha virt. eigenvalues --    0.19461   0.21020   0.24215   0.27602   0.28017
 Alpha virt. eigenvalues --    0.30496   0.32484   0.32824   0.34020   0.34777
 Alpha virt. eigenvalues --    0.36764   0.39228   0.40046   0.43146   0.48595

  Beta  occ. eigenvalues --  -20.66762 -20.65432 -11.22452 -11.21652 -11.21509
  Beta  occ. eigenvalues --  -11.21471 -11.19334  -1.52436  -1.11498  -1.09234
  Beta  occ. eigenvalues --   -0.99033  -0.94011  -0.87208  -0.75743  -0.70197
  Beta  occ. eigenvalues --   -0.65819  -0.62788  -0.60355  -0.59365  -0.58318
  Beta  occ. eigenvalues --   -0.53568  -0.53329  -0.52284  -0.51567  -0.50104
  Beta  occ. eigenvalues --   -0.48398  -0.46185  -0.33297
  Beta virt. eigenvalues --    0.11955   0.20081   0.21068   0.24328   0.27719
  Beta virt. eigenvalues --    0.28000   0.30540   0.32642   0.33297   0.34168
  Beta virt. eigenvalues --    0.36701   0.37337   0.39687   0.40402   0.43315

 Mulliken atomic charges:
              1
     1  O   -0.103273
     2  O   -0.390846
     3  C   -0.220710
     4  C    0.053042
     5  C   -0.532294
     6  C   -0.512913
     7  C   -0.504149
     8  H    0.470779
     9  H    0.173123
    10  H    0.238805
    11  H    0.165620
    12  H    0.163931
    13  H    0.169887
    14  H    0.176596
    15  H    0.160425
    16  H    0.165277
    17  H    0.155794
    18  H    0.170906
 Sum of Mulliken atomic charges =   0.00000

 Dipole moment (field-independent basis, Debye):
    X=              0.8922    Y=             -1.3084    Z=              1.1798  Tot=              1.9748
 Quadrupole moment (field-independent basis, Debye-Ang):
   XX=            -48.4152   YY=            -41.9075   ZZ=            -44.2137
   XY=              0.6625   XZ=             -1.6230   YZ=             -1.3371

  Exact polarizability:  66.142  -9.911  57.483   9.309  -0.964  59.024
 Approx polarizability:  52.283  -6.620  49.954   6.400  -0.598  52.297

 Normal termination of Gaussian 09 at Mon Apr 30 13:00:16 2018.
