 Gaussian 09, Revision B.01,
 Gaussian 09:  EM64L-G09RevB.01 12-Aug-2010

 -----------------------------------------------
 #p hf/6-31g* Opt=(ModRedun,Loose) Int(Grid=SG1)
 -----------------------------------------------

 ------------------------------
 Gaussian input prepared by ASE
 ------------------------------
 Symbolic Z-matrix:
 Charge =  0 Multiplicity = 2

 SCF Done:  E(UHF) =  -345.209403445     A.U. after   33 cycles
 SCF Done:  E(UHF) =  -345.219356354     A.U. after   47 cycles
 SCF Done:  E(UHF) =  -345.227426539     A.U. after   27 cycles
 SCF Done:  E(UHF) =  -345.243804761     A.U. after   27 cycles
 SCF Done:  E(UHF) =  -345.250850573     A.U. after   21 cycles
 SCF Done:  E(UHF) =  -345.250128934     A.U. after   24 cycles
 SCF Done:  E(UHF) =  -345.252948553     A.U. after   20 cycles
 SCF Done:  E(UHF) =  -345.253545784     A.U. after   21 cycles
 SCF Done:  E(UHF) =  -345.253376401     A.U. after   24 cycles
 SCF Done:  E(UHF) =  -345.253765395     A.U. after   24 cycles
 SCF Done:  E(UHF) =  -345.254590167     A.U. after   24 cycles
 SCF Done:  E(UHF) =  -345.255323001     A.U. after   20 cycles
 SCF Done:  E(UHF) =  -345.256667965     A.U. after   20 cycles
 SCF Done:  E(UHF) =  -345.257883718     A.U. after   24 cycles
 SCF Done:  E(UHF) =  -345.257769671     A.U. after   19 cycles
 SCF Done:  E(UHF) =  -345.258192038     A.U. after   18 cycles
 SCF Done:  E(UHF) =  -345.258220850     A.U. after   17 cycles
 SCF Done:  E(UHF) =  -345.258221982     A.U. after   14 cycles
 SCF Done:  E(UHF) =  -345.258223335     A.U. after   14 cycles
 SCF Done:  E(UHF) =  -345.258224091     A.U. after   12 cycles
 Optimization completed.
    -- Stationary point found.

                         Standard orientation:
 ---------------------------------------------------------------------
 Center     Atomic      Atomic             Coordinates (Angstroms)
 Number     Number       Type             X           Y           Z
 ---------------------------------------------------------------------
      1          8           0       -2.559423   -0.214001   -0.525742
      2          8           0       -2.327377    1.103536   -0.272465
      3          6           0        0.309123   -0.063206    0.888789
      4          6           0        1.390093    0.023026    0.069438
      5          6           0       -0.691063   -1.124750    0.924941
      6          6           0        1.765608   -1.011182   -0.961541
      7          6           0        2.328172    1.201052    0.156121
      8          1           0       -1.739635    1.371134   -0.969590
      9          1           0        0.137648    0.755104    1.567367
     10          1           0       -1.670027   -0.795128    0.117784
     11          1           0       -1.228053   -1.202424    1.858923
     12          1           0       -0.396981   -2.091928    0.546366
     13          1           0        2.739578   -1.439097   -0.734603
     14          1           0        1.053148   -1.821055   -1.034442
     15          1           0        1.846313   -0.552885   -1.944532
     16          1           0        3.337296    0.874685    0.397875
     17          1           0        2.387759    1.722771   -0.796886
     18          1           0        2.015759    1.912917    0.910902
 ---------------------------------------------------------------------

 The electronic state is 2-A.
 Alpha  occ. eigenvalues --  -20.64807 -20.62949 -11.24954 -11.24262 -11.22489
 Alpha  occ. eigenvalues --  -11.22399 -11.22377  -1.51559  -1.18364  -1.11305
 Alpha  occ. eigenvalues --   -1.01260  -0.95059  -0.88167  -0.74560  -0.71984
 Alpha  occ. eigenvalues --   -0.71486  -0.64587  -0.62669  -0.61311  -0.60958
 Alpha  occ. eigenvalues --   -0.55654  -0.54891  -0.53401  -0.51636  -0.51369
 Alpha  occ. eigenvalues --   -0.48624  -0.48447  -0.44210  -0.33566
 Alpha virt. eigenvalues --    0.18806   0.22062   0.24219   0.26406   0.26908
 Alpha virt. eigenvalues --    0.29434   0.31472   0.31629   0.33185   0.33919
 Alpha virt. eigenvalues --    0.35961   0.38132   0.38955   0.42651   0.45962

  Beta  occ. eigenvalues --  -20.62811 -20.61893 -11.23666 -11.23498 -11.22712
  Beta  occ. eigenvalues --  -11.22666 -11.22582  -1.47695  -1.12562  -1.09818
  Beta  occ. eigenvalues --   -0.99701  -0.95105  -0.86216  -0.72233  -0.71101
  Beta  occ. eigenvalues --   -0.64573  -0.63281  -0.61085  -0.59598  -0.58710
  Beta  occ. eigenvalues --   -0.55064  -0.54362  -0.53313  -0.51292  -0.48331
  Beta  occ. eigenvalues --   -0.46237  -0.45572  -0.35323
  Beta virt. eigenvalues --    0.07394   0.20440   0.21900   0.24417   0.26686
  Beta virt. eigenvalues --    0.26862   0.29600   0.31914   0.32862   0.33649
  Beta virt. eigenvalues --    0.35568   0.36481   0.38794   0.39960   0.43243

 Mulliken atomic charges:
              1
     1  O   -0.301730
     2  O   -0.434430
     3  C   -0.186520
     4  C    0.057995
     5  C   -0.515944
     6  C   -0.514769
     7  C   -0.509842
     8  H    0.457069
     9  H    0.190750
    10  H    0.321753
    11  H    0.204781
    12  H    0.193983
    13  H    0.174184
    14  H    0.178601
    15  H    0.170644
    16  H    0.171334
    17  H    0.165816
    18  H    0.176324
 Sum of Mulliken atomic charges =   0.00000

 Dipole moment (field-independent basis, Debye):
    X=              2.9811    Y=              0.0469    Z=             -0.5095  Tot=              3.0247
 Quadrupole moment (field-independent basis, Debye-Ang):
   XX=            -53.0266   YY=            -42.1678   ZZ=            -42.6744
   XY=              1.1652   XZ=             -1.0441   YZ=             -1.9156

 Normal termination of Gaussian 09 at Mon Apr 30 12:18:12 2018.
