 Gaussian 09, Revision B.01,
 Gaussian 09:  EM64L-G09RevB.01 12-Aug-2010

 ---------------------------------------------
 #p hf/6-31g* opt=(ts,calcfc,noeigentest) freq
 ---------------------------------------------

 ------------------------------
 Gaussian input prepared by ASE
 ------------------------------
 Symbolic Z-matrix:
 Charge =  0 Multiplicity = 2

 SCF Done:  E(UHF) =  -345.258393823     A.U. after   23 cycles
 SCF Done:  E(UHF) =  -345.258740781     A.U. after   18 cycles
 SCF Done:  E(UHF) =  -345.258752618     A.U. after   16 cycles
 SCF Done:  E(UHF) =  -345.258753238     A.U. after   13 cycles
 SCF Done:  E(UHF) =  -345.258753803     A.U. after   11 cycles
 SCF Done:  E(UHF) =  -345.258756868     A.U. after   15 cycles
 SCF Done:  E(UHF) =  -345.258757884     A.U. after   15 cycles
 SCF Done:  E(UHF) =  -345.258757985     A.U. after   13 cycles
 Optimization completed.
    -- Stationary point found.
 Normal termination of Gaussian 09 at Mon Apr 30 12:27:31 2018.

 -----------------------------------------------------------------
 #P Geom=AllCheck Guess=TCheck SCRF=Check GenChk UHF/6-31G(d) Freq
 -----------------------------------------------------------------

 Gaussian input prepared by ASE
 ------------------------------
 Redundant internal coordinates taken from checkpoint file:
 /home/harms.n/Code/AutoTST/ipython_notebooks/Gau-47741.chk
 Charge =  0 Multiplicity = 2

                         Standard orientation:
 ---------------------------------------------------------------------
 Center     Atomic      Atomic             Coordinates (Angstroms)
 Number     Number       Type             X           Y           Z
 ---------------------------------------------------------------------
      1          8           0       -2.585934   -0.189984   -0.453643
      2          8           0       -2.364187    1.144889   -0.269359
      3          6           0        0.365076   -0.147164    0.925691
      4          6           0        1.405975    0.011488    0.063782
      5          6           0       -0.660413   -1.179682    0.891959
      6          6           0        1.702876   -0.905352   -1.095870
      7          6           0        2.375548    1.154259    0.233147
      8          1           0       -1.822616    1.389821   -1.010483
      9          1           0        0.249735    0.592356    1.700180
     10          1           0       -1.670618   -0.709165    0.194625
     11          1           0       -1.150860   -1.364259    1.836386
     12          1           0       -0.433849   -2.092483    0.363428
     13          1           0        2.677726   -1.371819   -0.972509
     14          1           0        0.970066   -1.690454   -1.220245
     15          1           0        1.741700   -0.339916   -2.024107
     16          1           0        3.387545    0.784052    0.381869
     17          1           0        2.398361    1.780315   -0.656397
     18          1           0        2.119405    1.781016    1.079019
 ---------------------------------------------------------------------

 SCF Done:  E(UHF) =  -345.258757985     A.U. after    1 cycles

 The electronic state is 2-A.
 Alpha  occ. eigenvalues --  -20.64353 -20.62568 -11.25061 -11.24476 -11.22574
 Alpha  occ. eigenvalues --  -11.22546 -11.22425  -1.50919  -1.18083  -1.11422
 Alpha  occ. eigenvalues --   -1.01479  -0.95125  -0.88259  -0.74137  -0.71927
 Alpha  occ. eigenvalues --   -0.71154  -0.64760  -0.62305  -0.61380  -0.61029
 Alpha  occ. eigenvalues --   -0.55855  -0.54952  -0.53499  -0.51777  -0.51244
 Alpha  occ. eigenvalues --   -0.48657  -0.48255  -0.44004  -0.33620
 Alpha virt. eigenvalues --    0.18922   0.21997   0.24188   0.26268   0.26786
 Alpha virt. eigenvalues --    0.29368   0.31398   0.31622   0.33137   0.34279
 Alpha virt. eigenvalues --    0.35801   0.38041   0.38948   0.42580   0.45785

  Beta  occ. eigenvalues --  -20.62449 -20.61531 -11.23834 -11.23590 -11.22896
  Beta  occ. eigenvalues --  -11.22755 -11.22611  -1.47207  -1.12510  -1.09871
  Beta  occ. eigenvalues --   -0.99834  -0.95170  -0.86262  -0.71966  -0.71043
  Beta  occ. eigenvalues --   -0.64557  -0.63166  -0.61216  -0.59401  -0.58708
  Beta  occ. eigenvalues --   -0.55250  -0.54410  -0.53417  -0.51407  -0.48437
  Beta  occ. eigenvalues --   -0.45932  -0.45745  -0.35321
  Beta virt. eigenvalues --    0.07192   0.20514   0.21899   0.24398   0.26572
  Beta virt. eigenvalues --    0.26768   0.29542   0.31835   0.32886   0.33592
  Beta virt. eigenvalues --    0.35829   0.36330   0.38846   0.39925   0.43268

 Mulliken atomic charges:
              1
     1  O   -0.319958
     2  O   -0.439806
     3  C   -0.181961
     4  C    0.059126
     5  C   -0.518101
     6  C   -0.515378
     7  C   -0.509550
     8  H    0.455571
     9  H    0.190387
    10  H    0.337047
    11  H    0.206160
    12  H    0.197635
    13  H    0.174745
    14  H    0.178793
    15  H    0.170536
    16  H    0.171118
    17  H    0.166636
    18  H    0.176999
 Sum of Mulliken atomic charges =   0.00000

 Dipole moment (field-independent basis, Debye):
    X=              3.0871    Y=             -0.0558    Z=             -0.5884  Tot=              3.1431
 Quadrupole moment (field-independent basis, Debye-Ang):
   XX=            -53.4417   YY=            -42.4200   ZZ=            -42.0586
   XY=              1.4446   XZ=             -0.6737   YZ=             -2.0427

  Exact polarizability: 101.336  -4.836  62.460   3.316  -4.611  59.547
 Approx polarizability:  61.771   1.505  51.912  -2.371  -1.111  50.251

 ******    1 imaginary frequencies (negative Signs) ******

                     1                      2                      3
                     A                      A                      A
 Frequencies -- -3388.4319                40.4289                61.0727
 Red. masses --     1.0841                 4.2606                 3.8300
 Frc consts  --     7.3334                 0.0041                 0.0084
 IR Inten    -- 11540.5991                 2.5236                 6.0774
 Raman Activ --   950.3842                 4.7083                 2.9655

                     4                      5                      6
                     A                      A                      A
 Frequencies --    67.7457               104.3570               158.2744
 Red. masses --     3.7901                 1.0820                 1.4399
 Frc consts  --     0.0102                 0.0069                 0.0213
 IR Inten    --     3.1383                 0.3037                 0.9576
 Raman Activ --     6.7764                 0.5079                 1.7973

                     7                      8                      9
                     A                      A                      A
 Frequencies --   209.6957               311.6703               352.0281
 Red. masses --     1.9582                 2.4378                 1.7974
 Frc consts  --     0.0507                 0.1395                 0.1312
 IR Inten    --     0.0299                14.7113                44.6290
 Raman Activ --     4.9554                 1.4007                 4.6426

                    10                     11                     12
                     A                      A                      A
 Frequencies --   382.0441               416.3443               473.7425
 Red. masses --     1.7399                 1.8139                 2.6354
 Frc consts  --     0.1496                 0.1853                 0.3485
 IR Inten    --    55.5782                40.9784                 1.2750
 Raman Activ --     6.8039                 4.0125                 3.4879

                    13                     14                     15
                     A                      A                      A
 Frequencies --   516.4735               567.9553               592.5833
 Red. masses --     2.7317                 2.6583                 1.4737
 Frc consts  --     0.4293                 0.5052                 0.3049
 IR Inten    --     8.8632                 1.2448                25.8391
 Raman Activ --    17.4433                 6.4973                 8.4023

                    16                     17                     18
                     A                      A                      A
 Frequencies --   806.9133               934.7204              1050.0469
 Red. masses --     2.9248                 1.2579                 1.4307
 Frc consts  --     1.1220                 0.6475                 0.9294
 IR Inten    --     0.8567                15.0191                 0.1116
 Raman Activ --     5.3746                 1.2399                 4.1787

                    19                     20                     21
                     A                      A                      A
 Frequencies --  1072.8837              1092.2539              1146.1779
 Red. masses --     1.5604                 1.2384                 3.1455
 Frc consts  --     1.0583                 0.8705                 2.4347
 IR Inten    --     3.3000                 1.3715                14.6116
 Raman Activ --    13.2845                 3.2077                23.4218

                    22                     23                     24
                     A                      A                      A
 Frequencies --  1158.9116              1167.9950              1187.0193
 Red. masses --     1.6851                 1.7263                 1.5676
 Frc consts  --     1.3335                 1.3876                 1.3014
 IR Inten    --    12.6348                 6.8050                 0.1208
 Raman Activ --    15.3085                23.5713                 0.5836

                    25                     26                     27
                     A                      A                      A
 Frequencies --  1224.6484              1326.2244              1358.7590
 Red. masses --     2.3772                 1.4609                 1.5325
 Frc consts  --     2.1006                 1.5140                 1.6670
 IR Inten    --     1.6161                16.7187                 8.0188
 Raman Activ --   138.4757                 9.0474                19.8096

                    28                     29                     30
                     A                      A                      A
 Frequencies --  1489.5115              1547.9907              1566.0334
 Red. masses --     1.5798                 1.0577                 1.3656
 Frc consts  --     2.0651                 1.4933                 1.9733
 IR Inten    --     3.0729                28.2822                 4.6495
 Raman Activ --     1.6745                 9.9841                10.8092

                    31                     32                     33
                     A                      A                      A
 Frequencies --  1572.5285              1578.6047              1614.5756
 Red. masses --     1.2842                 1.1017                 1.2142
 Frc consts  --     1.8710                 1.6176                 1.8649
 IR Inten    --     1.1162                41.3605                 2.5850
 Raman Activ --     9.7635                 4.6969                46.7308

                    34                     35                     36
                     A                      A                      A
 Frequencies --  1619.5962              1625.2268              1635.9604
 Red. masses --     1.0917                 1.2104                 1.0627
 Frc consts  --     1.6872                 1.8837                 1.6757
 IR Inten    --     1.0354                 6.3631                10.7796
 Raman Activ --    11.3189                30.6583                 8.2194

                    37                     38                     39
                     A                      A                      A
 Frequencies --  1640.4983              1683.4806              3184.3540
 Red. masses --     1.0908                 1.7577                 1.0402
 Frc consts  --     1.7297                 2.9350                 6.2146
 IR Inten    --     5.6758                 1.8724                25.1730
 Raman Activ --    14.5226                73.9745                48.9342

                    40                     41                     42
                     A                      A                      A
 Frequencies --  3193.2132              3227.0802              3233.6591
 Red. masses --     1.0423                 1.1009                 1.1006
 Frc consts  --     6.2616                 6.7550                 6.7808
 IR Inten    --    59.1381                 7.7927                58.8868
 Raman Activ --   225.3186                28.5009               173.5574

                    43                     44                     45
                     A                      A                      A
 Frequencies --  3280.5100              3282.1148              3308.0365
 Red. masses --     1.0884                 1.0689                 1.0945
 Frc consts  --     6.9013                 6.7839                 7.0569
 IR Inten    --    23.6283                14.0759                35.0020
 Raman Activ --    72.7179               137.8303                40.5855

                    46                     47                     48
                     A                      A                      A
 Frequencies --  3339.7180              3362.6782              4068.1650
 Red. masses --     1.0914                 1.1073                 1.0684
 Frc consts  --     7.1725                 7.3771                10.4181
 IR Inten    --     7.4998                26.6344                39.4378
 Raman Activ --   101.9002                63.5160                56.6323

 - Thermochemistry -
 -------------------
 Temperature   298.150 Kelvin.  Pressure   1.00000 Atm.
 Atom     1 has atomic number  8 and mass  15.99491

 Molecular mass:   103.07590 amu.
 Principal axes and moments of inertia in atomic units:
                           1         2         3
     Eigenvalues --   501.134401517.478321625.12938
           X            0.99962   0.02157  -0.01706
           Y           -0.02086   0.99896   0.04059
           Z            0.01791  -0.04022   0.99903
 This molecule is an asymmetric top.
 Rotational symmetry number  1.
 Warning -- assumption of classical behavior for rotation
           may cause significant error
 Rotational temperatures (Kelvin)      0.17284     0.05708     0.05330
 Rotational constants (GHZ):           3.60131     1.18930     1.11052
    1 imaginary frequencies ignored.
 Zero-point vibrational energy     411721.8 (Joules/Mol)
                                   98.40386 (Kcal/Mol)
 Warning -- explicit consideration of  14 degrees of freedom as
           vibrations may cause significant error
 Vibrational temperatures:     58.17    87.87    97.47   150.15   227.72
          (Kelvin)            301.71   448.42   506.49   549.68   599.03
                              681.61   743.09   817.16   852.59  1160.97
                             1344.85  1510.78  1543.64  1571.51  1649.09
                             1667.41  1680.48  1707.85  1761.99  1908.14
                             1954.95  2143.07  2227.21  2253.17  2262.51
                             2271.26  2323.01  2330.23  2338.34  2353.78
                             2360.31  2422.15  4581.57  4594.32  4643.04
                             4652.51  4719.92  4722.23  4759.52  4805.10
                             4838.14  5853.17

 Zero-point correction=                           0.156817 (Hartree/Particle)
 Thermal correction to Energy=                    0.166556
 Thermal correction to Enthalpy=                  0.167500
 Thermal correction to Gibbs Free Energy=         0.120313
 Sum of electronic and zero-point Energies=           -345.101941
 Sum of electronic and thermal Energies=              -345.092202
 Sum of electronic and thermal Enthalpies=            -345.091258
 Sum of electronic and thermal Free Energies=         -345.138445

                     E (Thermal)             CV                S
                      KCal/Mol        Cal/Mol-Kelvin    Cal/Mol-Kelvin
 Total                  104.515             32.352             99.314
 Electronic               0.000              0.000              1.377
 Translational            0.889              2.981             39.808
 Rotational               0.889              2.981             28.604
 Vibrational            102.738             26.390             29.524
 Vibration     1          0.594              1.981              5.238
 Vibration     2          0.597              1.973              4.422
 Vibration     3          0.598              1.970              4.218
 Vibration     4          0.605              1.946              3.371
 Vibration     5          0.621              1.893              2.570
 Vibration     6          0.642              1.826              2.046
 Vibration     7          0.700              1.651              1.353
 Vibration     8          0.729              1.571              1.157
 Vibration     9          0.752              1.508              1.031
 Vibration    10          0.780              1.435              0.904
 Vibration    11          0.831              1.308              0.727
 Vibration    12          0.871              1.214              0.618
 Vibration    13          0.924              1.101              0.508
 Vibration    14          0.950              1.048              0.463

 Normal termination of Gaussian 09 at Mon Apr 30 12:28:40 2018.
