 Gaussian 09, Revision B.01,
 Gaussian 09:  EM64L-G09RevB.01 12-Aug-2010

 -----------------------------------------------
 #p hf/6-31g* Opt=(ModRedun,Loose) Int(Grid=SG1)
 -----------------------------------------------

 ------------------------------
 Gaussian input prepared by ASE
 ------------------------------
 Symbolic Z-matrix:
 Charge =  0 Multiplicity = 2

 SCF Done:  E(UHF) =  -345.192687311     A.U. after   30 cycles
 SCF Done:  E(UHF) =  -345.217267201     A.U. after   31 cycles
 SCF Done:  E(UHF) =  -345.229772786     A.U. after   26 cycles
 SCF Done:  E(UHF) =  -345.242316086     A.U. after   24 cycles
 SCF Done:  E(UHF) =  -345.245213849     A.U. after   20 cycles
 SCF Done:  E(UHF) =  -345.248896870     A.U. after   20 cycles
 SCF Done:  E(UHF) =  -345.250863652     A.U. after   18 cycles
 SCF Done:  E(UHF) =  -345.252811185     A.U. after   20 cycles
 SCF Done:  E(UHF) =  -345.253203867     A.U. after   18 cycles
 SCF Done:  E(UHF) =  -345.253553197     A.U. after   18 cycles
 SCF Done:  E(UHF) =  -345.257438025     A.U. after   24 cycles
 SCF Done:  E(UHF) =  -345.257383183     A.U. after   18 cycles
 SCF Done:  E(UHF) =  -345.257374013     A.U. after   24 cycles
 SCF Done:  E(UHF) =  -345.257440115     A.U. after   24 cycles
 SCF Done:  E(UHF) =  -345.257463204     A.U. after   16 cycles
 SCF Done:  E(UHF) =  -345.257475890     A.U. after   17 cycles
 SCF Done:  E(UHF) =  -345.257497195     A.U. after   17 cycles
 SCF Done:  E(UHF) =  -345.257506535     A.U. after   16 cycles
 SCF Done:  E(UHF) =  -345.257507853     A.U. after   15 cycles
 SCF Done:  E(UHF) =  -345.257508164     A.U. after   14 cycles
 Optimization completed.
    -- Stationary point found.

                         Standard orientation:
 ---------------------------------------------------------------------
 Center     Atomic      Atomic             Coordinates (Angstroms)
 Number     Number       Type             X           Y           Z
 ---------------------------------------------------------------------
      1          8           0       -2.384995   -0.014729    0.874985
      2          8           0       -3.355444    0.378060   -0.006767
      3          6           0        0.697416   -0.905682   -0.305776
      4          6           0        1.672395    0.001211   -0.031991
      5          6           0       -0.628825   -0.636255   -0.843819
      6          6           0        1.545822    1.484557   -0.267407
      7          6           0        2.991470   -0.440587    0.549543
      8          1           0       -3.926953   -0.378814   -0.062808
      9          1           0        0.898495   -1.935055   -0.057519
     10          1           0       -1.448883   -0.385949    0.147833
     11          1           0       -1.113193   -1.486057   -1.303798
     12          1           0       -0.763403    0.265552   -1.419566
     13          1           0        2.299712    1.824480   -0.974142
     14          1           0        0.575408    1.776858   -0.643260
     15          1           0        1.715363    2.026349    0.659814
     16          1           0        3.033343   -1.514115    0.691151
     17          1           0        3.816196   -0.153396   -0.099030
     18          1           0        3.167761    0.034035    1.512280
 ---------------------------------------------------------------------

 The electronic state is 2-A.
 Alpha  occ. eigenvalues --  -20.64443 -20.62568 -11.24600 -11.24384 -11.22183
 Alpha  occ. eigenvalues --  -11.21981 -11.21860  -1.50769  -1.18187  -1.10988
 Alpha  occ. eigenvalues --   -1.01196  -0.94553  -0.88013  -0.73901  -0.72240
 Alpha  occ. eigenvalues --   -0.70396  -0.64413  -0.62185  -0.61088  -0.60552
 Alpha  occ. eigenvalues --   -0.55429  -0.54385  -0.53230  -0.51636  -0.51126
 Alpha  occ. eigenvalues --   -0.48450  -0.48094  -0.43731  -0.33255
 Alpha virt. eigenvalues --    0.19381   0.22540   0.23438   0.26767   0.27164
 Alpha virt. eigenvalues --    0.29784   0.31729   0.32250   0.33376   0.33954
 Alpha virt. eigenvalues --    0.36016   0.38512   0.39471   0.42689   0.44907

  Beta  occ. eigenvalues --  -20.62504 -20.61576 -11.23464 -11.23145 -11.22799
  Beta  occ. eigenvalues --  -11.22165 -11.22039  -1.47079  -1.12581  -1.09449
  Beta  occ. eigenvalues --   -0.99447  -0.94602  -0.86073  -0.71581  -0.71162
  Beta  occ. eigenvalues --   -0.63968  -0.63167  -0.61032  -0.58787  -0.58271
  Beta  occ. eigenvalues --   -0.54818  -0.53845  -0.53015  -0.50970  -0.48160
  Beta  occ. eigenvalues --   -0.46609  -0.45752  -0.34649
  Beta virt. eigenvalues --    0.07390   0.20938   0.22726   0.23484   0.26928
  Beta virt. eigenvalues --    0.27329   0.29952   0.32198   0.33433   0.34158
  Beta virt. eigenvalues --    0.35773   0.36276   0.39063   0.40466   0.43586

 Mulliken atomic charges:
              1
     1  O   -0.315233
     2  O   -0.444895
     3  C   -0.190028
     4  C    0.074797
     5  C   -0.510045
     6  C   -0.516612
     7  C   -0.510551
     8  H    0.455855
     9  H    0.180881
    10  H    0.330251
    11  H    0.190858
    12  H    0.210962
    13  H    0.169962
    14  H    0.183874
    15  H    0.176311
    16  H    0.173142
    17  H    0.168848
    18  H    0.171624
 Sum of Mulliken atomic charges =   0.00000

 Dipole moment (field-independent basis, Debye):
    X=              0.9244    Y=             -1.5734    Z=             -1.1932  Tot=              2.1803
 Quadrupole moment (field-independent basis, Debye-Ang):
   XX=            -39.6369   YY=            -43.1019   ZZ=            -46.2712
   XY=              6.5997   XZ=              3.8062   YZ=             -0.0202

 Normal termination of Gaussian 09 at Tue May  1 13:50:28 2018.
