 Gaussian 09, Revision B.01,
 Gaussian 09:  EM64L-G09RevB.01 12-Aug-2010

 -----------------------------------------------
 #p hf/6-31g* Opt=(ModRedun,Loose) Int(Grid=SG1)
 -----------------------------------------------

 ------------------------------
 Gaussian input prepared by ASE
 ------------------------------
 Symbolic Z-matrix:
 Charge =  0 Multiplicity = 2

 SCF Done:  E(UHF) =  -345.191841064     A.U. after   30 cycles
 SCF Done:  E(UHF) =  -345.216865477     A.U. after   32 cycles
 SCF Done:  E(UHF) =  -345.229295116     A.U. after   26 cycles
 SCF Done:  E(UHF) =  -345.229529815     A.U. after   23 cycles
 SCF Done:  E(UHF) =  -345.245274842     A.U. after   21 cycles
 SCF Done:  E(UHF) =  -345.249520032     A.U. after   19 cycles
 SCF Done:  E(UHF) =  -345.251521064     A.U. after   19 cycles
 SCF Done:  E(UHF) =  -345.252954943     A.U. after   21 cycles
 SCF Done:  E(UHF) =  -345.253068215     A.U. after   17 cycles
 SCF Done:  E(UHF) =  -345.253123384     A.U. after   16 cycles
 SCF Done:  E(UHF) =  -345.257199820     A.U. after   20 cycles
 SCF Done:  E(UHF) =  -345.257221507     A.U. after   18 cycles
 SCF Done:  E(UHF) =  -345.257261524     A.U. after   18 cycles
 SCF Done:  E(UHF) =  -345.257314884     A.U. after   18 cycles
 SCF Done:  E(UHF) =  -345.257455069     A.U. after   21 cycles
 SCF Done:  E(UHF) =  -345.257430161     A.U. after   20 cycles
 SCF Done:  E(UHF) =  -345.257469005     A.U. after   24 cycles
 SCF Done:  E(UHF) =  -345.257506039     A.U. after   19 cycles
 SCF Done:  E(UHF) =  -345.257507690     A.U. after   16 cycles
 SCF Done:  E(UHF) =  -345.257508267     A.U. after   14 cycles
 Optimization completed.
    -- Stationary point found.

                         Standard orientation:
 ---------------------------------------------------------------------
 Center     Atomic      Atomic             Coordinates (Angstroms)
 Number     Number       Type             X           Y           Z
 ---------------------------------------------------------------------
      1          8           0       -2.386545   -0.017468    0.875202
      2          8           0       -3.354664    0.379517   -0.007115
      3          6           0        0.697580   -0.905499   -0.305721
      4          6           0        1.672450    0.001331   -0.031515
      5          6           0       -0.628910   -0.635780   -0.843314
      6          6           0        2.992176   -0.440620    0.548290
      7          6           0        1.545539    1.484820   -0.266120
      8          1           0       -3.926330   -0.376901   -0.068018
      9          1           0        0.898912   -1.935070   -0.058495
     10          1           0       -1.448585   -0.385064    0.148551
     11          1           0       -1.113487   -1.485563   -1.303161
     12          1           0       -0.763293    0.266003   -1.419213
     13          1           0        3.169167    0.032940    1.511408
     14          1           0        3.034610   -1.514331    0.688522
     15          1           0        3.816222   -0.152328   -0.100736
     16          1           0        0.573198    1.777630   -0.636582
     17          1           0        1.720430    2.026421    0.660224
     18          1           0        2.295818    1.824360   -0.976910
 ---------------------------------------------------------------------

 The electronic state is 2-A.
 Alpha  occ. eigenvalues --  -20.64447 -20.62571 -11.24598 -11.24385 -11.22182
 Alpha  occ. eigenvalues --  -11.21981 -11.21861  -1.50777  -1.18188  -1.10988
 Alpha  occ. eigenvalues --   -1.01194  -0.94552  -0.88013  -0.73904  -0.72242
 Alpha  occ. eigenvalues --   -0.70398  -0.64411  -0.62190  -0.61086  -0.60551
 Alpha  occ. eigenvalues --   -0.55430  -0.54386  -0.53230  -0.51636  -0.51128
 Alpha  occ. eigenvalues --   -0.48450  -0.48093  -0.43733  -0.33255
 Alpha virt. eigenvalues --    0.19378   0.22534   0.23436   0.26769   0.27170
 Alpha virt. eigenvalues --    0.29792   0.31727   0.32253   0.33384   0.33944
 Alpha virt. eigenvalues --    0.36010   0.38511   0.39456   0.42684   0.44907

  Beta  occ. eigenvalues --  -20.62507 -20.61579 -11.23464 -11.23144 -11.22800
  Beta  occ. eigenvalues --  -11.22166 -11.22040  -1.47085  -1.12581  -1.09448
  Beta  occ. eigenvalues --   -0.99445  -0.94601  -0.86073  -0.71583  -0.71161
  Beta  occ. eigenvalues --   -0.63967  -0.63170  -0.61032  -0.58789  -0.58271
  Beta  occ. eigenvalues --   -0.54819  -0.53845  -0.53014  -0.50970  -0.48160
  Beta  occ. eigenvalues --   -0.46610  -0.45751  -0.34648
  Beta virt. eigenvalues --    0.07390   0.20933   0.22720   0.23483   0.26928
  Beta virt. eigenvalues --    0.27335   0.29957   0.32199   0.33436   0.34150
  Beta virt. eigenvalues --    0.35773   0.36277   0.39047   0.40464   0.43582

 Mulliken atomic charges:
              1
     1  O   -0.315149
     2  O   -0.444860
     3  C   -0.190079
     4  C    0.074797
     5  C   -0.510086
     6  C   -0.510555
     7  C   -0.516660
     8  H    0.455857
     9  H    0.180895
    10  H    0.330321
    11  H    0.190818
    12  H    0.210920
    13  H    0.171625
    14  H    0.173136
    15  H    0.168839
    16  H    0.183942
    17  H    0.176219
    18  H    0.170018
 Sum of Mulliken atomic charges =   0.00000

 Dipole moment (field-independent basis, Debye):
    X=              0.9249    Y=             -1.5689    Z=             -1.2024  Tot=              2.1824
 Quadrupole moment (field-independent basis, Debye-Ang):
   XX=            -39.6390   YY=            -43.1089   ZZ=            -46.2710
   XY=              6.5842   XZ=              3.8432   YZ=             -0.0106

 Normal termination of Gaussian 09 at Thu Apr 26 16:14:15 2018.
