 Gaussian 09, Revision B.01,
 Gaussian 09:  EM64L-G09RevB.01 12-Aug-2010

 -------------------------------------------------
 #p hf/6-31g* opt=(ts,calcfc,noeigentest,ModRedun)
 -------------------------------------------------

 ------------------------------
 Gaussian input prepared by ASE
 ------------------------------
 Symbolic Z-matrix:
 Charge =  0 Multiplicity = 2

 SCF Done:  E(UHF) =  -345.257508267     A.U. after   23 cycles

  Exact polarizability:   0.000   0.000   0.000   0.000   0.000   0.000
 Approx polarizability:  67.416   1.660  51.123   0.940   1.436  46.097

 SCF Done:  E(UHF) =  -345.257561791     A.U. after   15 cycles
 Optimization completed.
    -- Stationary point found.

                         Standard orientation:
 ---------------------------------------------------------------------
 Center     Atomic      Atomic             Coordinates (Angstroms)
 Number     Number       Type             X           Y           Z
 ---------------------------------------------------------------------
      1          8           0       -2.386275   -0.019724    0.875408
      2          8           0       -3.354580    0.380214   -0.006169
      3          6           0        0.697441   -0.905290   -0.305664
      4          6           0        1.672476    0.001312   -0.031289
      5          6           0       -0.628407   -0.635420   -0.843709
      6          6           0        2.992210   -0.441014    0.548212
      7          6           0        1.545751    1.484893   -0.265411
      8          1           0       -3.926362   -0.376103   -0.067239
      9          1           0        0.898659   -1.934970   -0.058804
     10          1           0       -1.455394   -0.375223    0.133009
     11          1           0       -1.113827   -1.484776   -1.303077
     12          1           0       -0.763394    0.266776   -1.418613
     13          1           0        3.169384    0.032213    1.511460
     14          1           0        3.034505   -1.514776    0.688097
     15          1           0        3.816218   -0.152634   -0.100820
     16          1           0        0.573408    1.777961   -0.635662
     17          1           0        1.720831    2.026174    0.661086
     18          1           0        2.295993    1.824552   -0.976182
 ---------------------------------------------------------------------

 The electronic state is 2-A.
 Alpha  occ. eigenvalues --  -20.64518 -20.62598 -11.24594 -11.24337 -11.22166
 Alpha  occ. eigenvalues --  -11.21975 -11.21858  -1.50825  -1.18231  -1.10977
 Alpha  occ. eigenvalues --   -1.01195  -0.94547  -0.88027  -0.73933  -0.72276
 Alpha  occ. eigenvalues --   -0.70430  -0.64403  -0.62197  -0.61087  -0.60545
 Alpha  occ. eigenvalues --   -0.55423  -0.54381  -0.53209  -0.51662  -0.51131
 Alpha  occ. eigenvalues --   -0.48497  -0.48106  -0.43780  -0.33258
 Alpha virt. eigenvalues --    0.19345   0.22518   0.23445   0.26783   0.27179
 Alpha virt. eigenvalues --    0.29802   0.31746   0.32262   0.33469   0.33970
 Alpha virt. eigenvalues --    0.36025   0.38518   0.39461   0.42795   0.45048

  Beta  occ. eigenvalues --  -20.62535 -20.61634 -11.23447 -11.23141 -11.22758
  Beta  occ. eigenvalues --  -11.22159 -11.22036  -1.47112  -1.12591  -1.09443
  Beta  occ. eigenvalues --   -0.99447  -0.94596  -0.86105  -0.71579  -0.71179
  Beta  occ. eigenvalues --   -0.63962  -0.63155  -0.61029  -0.58824  -0.58283
  Beta  occ. eigenvalues --   -0.54817  -0.53841  -0.53003  -0.50963  -0.48135
  Beta  occ. eigenvalues --   -0.46685  -0.45767  -0.34644
  Beta virt. eigenvalues --    0.07383   0.20899   0.22706   0.23489   0.26938
  Beta virt. eigenvalues --    0.27342   0.29966   0.32210   0.33438   0.34176
  Beta virt. eigenvalues --    0.35855   0.36288   0.39045   0.40469   0.43615

 Mulliken atomic charges:
              1
     1  O   -0.313305
     2  O   -0.445481
     3  C   -0.189240
     4  C    0.074428
     5  C   -0.511714
     6  C   -0.510566
     7  C   -0.516565
     8  H    0.456033
     9  H    0.180900
    10  H    0.330204
    11  H    0.190669
    12  H    0.211061
    13  H    0.171611
    14  H    0.173151
    15  H    0.168803
    16  H    0.183804
    17  H    0.176200
    18  H    0.170008
 Sum of Mulliken atomic charges =   0.00000

 Dipole moment (field-independent basis, Debye):
    X=              0.9061    Y=             -1.5550    Z=             -1.1994  Tot=              2.1628
 Quadrupole moment (field-independent basis, Debye-Ang):
   XX=            -39.5688   YY=            -43.1170   ZZ=            -46.2796
   XY=              6.5617   XZ=              3.8340   YZ=             -0.0037

 Normal termination of Gaussian 09 at Thu Apr 26 16:17:03 2018.
