 Gaussian 09, Revision B.01,
 Gaussian 09:  EM64L-G09RevB.01 12-Aug-2010

 ---------------------------------------------------------
 #p m062x/6-311+g(2df,2p) opt=(ts,calcfc,noeigentest) freq
 ---------------------------------------------------------

 ------------------------------
 Gaussian input prepared by ASE
 ------------------------------
 Symbolic Z-matrix:
 Charge =  0 Multiplicity = 2

 SCF Done:  E(UM062X) =  -269.936147292     A.U. after   18 cycles
 SCF Done:  E(UM062X) =  -269.957861395     A.U. after   18 cycles
 SCF Done:  E(UM062X) =  -269.971119734     A.U. after   18 cycles
 SCF Done:  E(UM062X) =  -269.975062061     A.U. after   18 cycles
 SCF Done:  E(UM062X) =  -269.973452818     A.U. after   18 cycles
 SCF Done:  E(UM062X) =  -269.973261044     A.U. after   17 cycles
 SCF Done:  E(UM062X) =  -269.972352290     A.U. after   17 cycles
 SCF Done:  E(UM062X) =  -269.973579295     A.U. after   15 cycles
 SCF Done:  E(UM062X) =  -269.973666686     A.U. after   15 cycles
 SCF Done:  E(UM062X) =  -269.910811280     A.U. after   21 cycles
 SCF Done:  E(UM062X) =  -269.974602244     A.U. after   13 cycles
 SCF Done:  E(UM062X) =  -269.974654108     A.U. after   13 cycles
 SCF Done:  E(UM062X) =  -269.974609771     A.U. after   12 cycles
 SCF Done:  E(UM062X) =  -269.974655696     A.U. after   12 cycles
 SCF Done:  E(UM062X) =  -269.974578189     A.U. after   13 cycles
 SCF Done:  E(UM062X) =  -269.974652534     A.U. after   13 cycles
 SCF Done:  E(UM062X) =  -269.974654281     A.U. after   12 cycles
 SCF Done:  E(UM062X) =  -269.974661452     A.U. after   12 cycles
 SCF Done:  E(UM062X) =  -269.974662098     A.U. after   11 cycles
 Optimization completed.
    -- Stationary point found.
 Normal termination of Gaussian 09 at Thu Mar 22 16:53:16 2018.

 ----------------------------------------------------------------------
 #P Geom=AllCheck Guess=TCheck SCRF=Check GenChk UM062X/6-311+G(2df,2p)
  Freq
 ----------------------------------------------------------------------

 Gaussian input prepared by ASE
 ------------------------------
 Redundant internal coordinates taken from checkpoint file:
 /home/harms.n/Code/AutoTST/ipython_notebooks/Gau-10823.chk
 Charge =  0 Multiplicity = 2

                         Standard orientation:
 ---------------------------------------------------------------------
 Center     Atomic      Atomic             Coordinates (Angstroms)
 Number     Number       Type             X           Y           Z
 ---------------------------------------------------------------------
      1          6           0        1.639885   -0.308384   -0.226572
      2          6           0        0.586867   -1.169410    0.411718
      3          6           0        1.411706    1.178616    0.023628
      4          1           0        1.674901   -0.508804   -1.299271
      5          1           0        2.619531   -0.605297    0.167777
      6          1           0       -0.556158   -0.796654   -0.149543
      7          1           0        0.631785   -2.233851    0.196910
      8          1           0        0.375847   -0.952011    1.457880
      9          1           0        1.398649    1.391710    1.093372
     10          1           0        2.197946    1.779265   -0.431250
     11          1           0        0.453565    1.493968   -0.388213
     12          8           0       -1.953507    0.613201    0.282655
     13          8           0       -1.548063   -0.354331   -0.622155
     14          1           0       -2.614255    0.155773    0.815700
 ---------------------------------------------------------------------

 SCF Done:  E(UM062X) =  -269.974662098     A.U. after    1 cycles

 The electronic state is 2-A.
 Alpha  occ. eigenvalues --  -19.69140 -19.68832 -10.55193 -10.54073 -10.51999
 Alpha  occ. eigenvalues --   -1.27326  -0.99149  -0.89453  -0.78116  -0.68254
 Alpha  occ. eigenvalues --   -0.62362  -0.58888  -0.53628  -0.52530  -0.51583
 Alpha  occ. eigenvalues --   -0.47699  -0.43284  -0.41574  -0.40736  -0.39404
 Alpha  occ. eigenvalues --   -0.37881  -0.29977
 Alpha virt. eigenvalues --    0.01739   0.02984   0.03326   0.04850   0.05819
 Alpha virt. eigenvalues --    0.07273   0.07876   0.08065   0.09524   0.11079
 Alpha virt. eigenvalues --    0.11601   0.12402   0.14279   0.15548   0.18007

  Beta  occ. eigenvalues --  -19.68984 -19.67865 -10.54715 -10.54095 -10.51993
  Beta  occ. eigenvalues --   -1.25627  -0.96647  -0.88616  -0.76934  -0.67220
  Beta  occ. eigenvalues --   -0.61114  -0.55649  -0.52604  -0.50887  -0.50234
  Beta  occ. eigenvalues --   -0.47041  -0.42185  -0.41095  -0.40470  -0.36647
  Beta  occ. eigenvalues --   -0.35550
  Beta virt. eigenvalues --   -0.08311   0.01697   0.03006   0.03402   0.04874
  Beta virt. eigenvalues --    0.05895   0.07328   0.07992   0.08105   0.09568
  Beta virt. eigenvalues --    0.11242   0.11578   0.12634   0.14116   0.15826

 Mulliken atomic charges:
              1
     1  C   -0.207822
     2  C   -0.565027
     3  C   -0.454244
     4  H    0.165414
     5  H    0.143927
     6  H    0.390319
     7  H    0.160607
     8  H    0.170933
     9  H    0.139307
    10  H    0.138990
    11  H    0.169485
    12  O   -0.201042
    13  O   -0.306190
    14  H    0.255344
 Sum of Mulliken atomic charges =   0.00000

 Dipole moment (field-independent basis, Debye):
    X=              0.6517    Y=             -1.0966    Z=              1.6013  Tot=              2.0473
 Quadrupole moment (field-independent basis, Debye-Ang):
   XX=            -29.7059   YY=            -33.4941   ZZ=            -32.4226
   XY=              0.6666   XZ=             -4.3333   YZ=             -0.4844

  Exact polarizability:  76.581  -8.255  54.539   1.736  -0.724  47.250
 Approx polarizability:  76.093  -9.302  60.721   2.546   0.308  58.593

 ******    1 imaginary frequencies (negative Signs) ******

                     1                      2                      3
                     A                      A                      A
 Frequencies -- -1870.4300                66.6405                84.9272
 Red. masses --     1.1025                 2.6305                 3.3832
 Frc consts  --     2.2725                 0.0069                 0.0144
 IR Inten    --  1611.0919                 0.3018                 4.3268

                     4                      5                      6
                     A                      A                      A
 Frequencies --   132.1520               182.8239               265.5071
 Red. masses --     2.6843                 3.1976                 1.1493
 Frc consts  --     0.0276                 0.0630                 0.0477
 IR Inten    --     9.7333                 0.1561                 0.6323

                     7                      8                      9
                     A                      A                      A
 Frequencies --   365.6839               442.7011               557.7460
 Red. masses --     1.8525                 1.1186                 2.5558
 Frc consts  --     0.1460                 0.1292                 0.4684
 IR Inten    --     4.7332               102.4335                 7.8787

                    10                     11                     12
                     A                      A                      A
 Frequencies --   621.9795               752.7287               893.2596
 Red. masses --     1.6615                 1.1238                 2.0969
 Frc consts  --     0.3787                 0.3751                 0.9858
 IR Inten    --     0.7437                12.8957                 5.7712

                    13                     14                     15
                     A                      A                      A
 Frequencies --   918.6640               934.5641              1076.4219
 Red. masses --     1.1625                 1.1581                 2.2051
 Frc consts  --     0.5780                 0.5959                 1.5054
 IR Inten    --     6.8712                 5.1312                22.0664

                    16                     17                     18
                     A                      A                      A
 Frequencies --  1082.9327              1127.2748              1197.6753
 Red. masses --     4.8674                 1.4763                 1.7189
 Frc consts  --     3.3632                 1.1053                 1.4527
 IR Inten    --    14.5227                10.5270                 1.2932

                    19                     20                     21
                     A                      A                      A
 Frequencies --  1207.4684              1285.9885              1365.7806
 Red. masses --     1.4101                 1.1823                 1.4436
 Frc consts  --     1.2113                 1.1520                 1.5865
 IR Inten    --     3.3592                 3.5658                 3.7481

                    22                     23                     24
                     A                      A                      A
 Frequencies --  1413.4456              1428.2536              1455.4054
 Red. masses --     1.2674                 1.1101                 1.0479
 Frc consts  --     1.4918                 1.3342                 1.3078
 IR Inten    --     4.3737                46.2363                 1.9492

                    25                     26                     27
                     A                      A                      A
 Frequencies --  1462.1708              1475.6530              1503.0974
 Red. masses --     1.1473                 1.0772                 1.0459
 Frc consts  --     1.4452                 1.3820                 1.3922
 IR Inten    --     3.3337                 2.6625                 8.5372

                    28                     29                     30
                     A                      A                      A
 Frequencies --  1508.2344              3006.3018              3050.8362
 Red. masses --     1.0544                 1.0695                 1.0363
 Frc consts  --     1.4132                 5.6949                 5.6830
 IR Inten    --     6.2717                11.2661                16.8974

                    31                     32                     33
                     A                      A                      A
 Frequencies --  3070.9453              3097.1529              3123.0294
 Red. masses --     1.0890                 1.0546                 1.1019
 Frc consts  --     6.0511                 5.9605                 6.3321
 IR Inten    --     9.1438                12.3903                25.6509

                    34                     35                     36
                     A                      A                      A
 Frequencies --  3133.5423              3180.6208              3818.2916
 Red. masses --     1.1032                 1.1111                 1.0683
 Frc consts  --     6.3825                 6.6228                 9.1766
 IR Inten    --     9.7945                10.6132                68.0104

 - Thermochemistry -
 -------------------
 Temperature   298.150 Kelvin.  Pressure   1.00000 Atm.
 Atom     1 has atomic number  6 and mass  12.00000

 Molecular mass:    77.06025 amu.
 Principal axes and moments of inertia in atomic units:
                           1         2         3
     Eigenvalues --   260.81916 714.24539 859.44547
           X            0.99972   0.01784  -0.01563
           Y           -0.01817   0.99960  -0.02163
           Z            0.01524   0.02191   0.99964
 This molecule is an asymmetric top.
 Rotational symmetry number  1.
 Rotational temperatures (Kelvin)      0.33208     0.12127     0.10078
 Rotational constants (GHZ):           6.91951     2.52678     2.09989
    1 imaginary frequencies ignored.
 Zero-point vibrational energy     300800.4 (Joules/Mol)
                                   71.89302 (Kcal/Mol)
 Warning -- explicit consideration of   8 degrees of freedom as
           vibrations may cause significant error
 Vibrational temperatures:     95.88   122.19   190.14   263.04   382.00
          (Kelvin)            526.14   636.95   802.47   894.89  1083.01
                             1285.20  1321.75  1344.63  1548.73  1558.10
                             1621.90  1723.19  1737.28  1850.25  1965.05
                             2033.63  2054.94  2094.00  2103.73  2123.13
                             2162.62  2170.01  4325.39  4389.47  4418.40
                             4456.11  4493.34  4508.46  4576.20  5493.66

 Zero-point correction=                           0.114569 (Hartree/Particle)
 Thermal correction to Energy=                    0.122058
 Thermal correction to Enthalpy=                  0.123002
 Thermal correction to Gibbs Free Energy=         0.082294
 Sum of electronic and zero-point Energies=           -269.860093
 Sum of electronic and thermal Energies=              -269.852604
 Sum of electronic and thermal Enthalpies=            -269.851660
 Sum of electronic and thermal Free Energies=         -269.892368

                     E (Thermal)             CV                S
                      KCal/Mol        Cal/Mol-Kelvin    Cal/Mol-Kelvin
 Total                   76.592             24.744             85.677
 Electronic               0.000              0.000              1.377
 Translational            0.889              2.981             38.941
 Rotational               0.889              2.981             26.573
 Vibrational             74.815             18.782             18.785
 Vibration     1          0.598              1.970              4.250
 Vibration     2          0.601              1.960              3.774
 Vibration     3          0.612              1.921              2.914
 Vibration     4          0.630              1.863              2.299
 Vibration     5          0.671              1.736              1.625
 Vibration     6          0.739              1.543              1.098
 Vibration     7          0.802              1.377              0.818
 Vibration     8          0.913              1.123              0.528

 Optimization completed.
    -- Stationary point found.
 Normal termination of Gaussian 09 at Thu Mar 22 17:07:02 2018.
