 Gaussian 09, Revision B.01,
 Gaussian 09:  EM64L-G09RevB.01 12-Aug-2010

 ---------------------------------------------------------------
 #p m062x/6-311+g(2df,2p) opt=(verytight,gdiis) freq IOP(2/16=3)
 ---------------------------------------------------------------

 ------------------------------
 Gaussian input prepared by ASE
 ------------------------------
 Symbolic Z-matrix:
 Charge =  0 Multiplicity = 2

 SCF Done:  E(UM062X) =  -157.720495605     A.U. after   13 cycles
 SCF Done:  E(UM062X) =  -157.731661471     A.U. after   13 cycles
 SCF Done:  E(UM062X) =  -157.738006329     A.U. after   11 cycles
 SCF Done:  E(UM062X) =  -157.740461322     A.U. after   11 cycles
 SCF Done:  E(UM062X) =  -157.742276084     A.U. after   14 cycles
 SCF Done:  E(UM062X) =  -157.743287431     A.U. after   12 cycles
 SCF Done:  E(UM062X) =  -157.743450346     A.U. after   10 cycles
 SCF Done:  E(UM062X) =  -157.743320496     A.U. after   11 cycles
 SCF Done:  E(UM062X) =  -157.743561581     A.U. after   11 cycles
 SCF Done:  E(UM062X) =  -157.743586191     A.U. after   10 cycles
 SCF Done:  E(UM062X) =  -157.743738724     A.U. after    7 cycles
 SCF Done:  E(UM062X) =  -157.743738767     A.U. after    7 cycles
 SCF Done:  E(UM062X) =  -157.743738762     A.U. after    6 cycles
 SCF Done:  E(UM062X) =  -157.743738765     A.U. after    5 cycles
 SCF Done:  E(UM062X) =  -157.743738765     A.U. after    3 cycles
 SCF Done:  E(UM062X) =  -157.743738765     A.U. after    4 cycles
 SCF Done:  E(UM062X) =  -157.743738765     A.U. after    3 cycles
 SCF Done:  E(UM062X) =  -157.743738765     A.U. after    2 cycles
 SCF Done:  E(UM062X) =  -157.743738765     A.U. after    1 cycles
 Optimization completed.
    -- Stationary point found.
 Normal termination of Gaussian 09 at Tue May  8 10:43:47 2018.

 ----------------------------------------------------------------------
 #P Geom=AllCheck Guess=TCheck SCRF=Check Test GenChk UM062X/6-311+G(2d
 f,2p) Freq
 ----------------------------------------------------------------------

 Gaussian input prepared by ASE
 ------------------------------
 Redundant internal coordinates taken from checkpoint file:
 /home/harms.n/Code/AutoTST/Gau-30072.chk
 Charge =  0 Multiplicity = 2

                         Standard orientation:
 ---------------------------------------------------------------------
 Center     Atomic      Atomic             Coordinates (Angstroms)
 Number     Number       Type             X           Y           Z
 ---------------------------------------------------------------------
      1          6           0        1.560422   -0.594386   -0.136463
      2          6           0       -1.505233   -0.554540    0.150952
      3          6           0        0.761093    0.583404    0.292748
      4          6           0       -0.641603    0.609568   -0.321270
      5          1           0        2.323299   -1.020240    0.496933
      6          1           0        1.509828   -0.934982   -1.161563
      7          1           0       -2.500552   -0.518403   -0.290512
      8          1           0       -1.617952   -0.533918    1.236299
      9          1           0       -1.050552   -1.509453   -0.114663
     10          1           0        0.682042    0.603437    1.383215
     11          1           0        1.283489    1.509746    0.015690
     12          1           0       -0.550648    0.585068   -1.410480
     13          1           0       -1.127030    1.554466   -0.070721
 ---------------------------------------------------------------------

 SCF Done:  E(UM062X) =  -157.743738765     A.U. after    1 cycles

 The electronic state is 2-A.
 Alpha  occ. eigenvalues --  -10.53705 -10.53299 -10.52930 -10.51779  -0.90062
 Alpha  occ. eigenvalues --   -0.81297  -0.72186  -0.65055  -0.53830  -0.51938
 Alpha  occ. eigenvalues --   -0.49541  -0.45726  -0.43845  -0.40710  -0.39283
 Alpha  occ. eigenvalues --   -0.38854  -0.25661
 Alpha virt. eigenvalues --    0.02021   0.03529   0.03735   0.04039   0.06597
 Alpha virt. eigenvalues --    0.07195   0.07497   0.07927   0.08564   0.11325
 Alpha virt. eigenvalues --    0.11551   0.11779   0.12221   0.12517   0.15800

  Beta  occ. eigenvalues --  -10.53365 -10.53019 -10.52900 -10.51771  -0.89340
  Beta  occ. eigenvalues --   -0.79965  -0.70434  -0.63933  -0.53250  -0.50965
  Beta  occ. eigenvalues --   -0.48853  -0.45141  -0.43335  -0.39893  -0.38975
  Beta  occ. eigenvalues --   -0.38718
  Beta virt. eigenvalues --   -0.01971   0.01681   0.03234   0.03658   0.03963
  Beta virt. eigenvalues --    0.06665   0.07201   0.07379   0.07617   0.08745
  Beta virt. eigenvalues --    0.10689   0.11390   0.11806   0.12040   0.12731

 Mulliken atomic charges:
              1
     1  C   -0.455572
     2  C   -0.443751
     3  C   -0.164431
     4  C   -0.298118
     5  H    0.172827
     6  H    0.173630
     7  H    0.133029
     8  H    0.135167
     9  H    0.140287
    10  H    0.160680
    11  H    0.139942
    12  H    0.161840
    13  H    0.144468
 Sum of Mulliken atomic charges =   0.00000

 Dipole moment (field-independent basis, Debye):
    X=             -0.0725    Y=              0.3237    Z=              0.0130  Tot=              0.3320
 Quadrupole moment (field-independent basis, Debye-Ang):
   XX=            -28.4497   YY=            -28.4841   ZZ=            -27.3485
   XY=             -0.3655   XZ=              0.3879   YZ=              0.3451

  Exact polarizability:  54.170  -0.758  49.150  -0.112   0.060  45.482
 Approx polarizability:  55.860  -1.025  56.081   0.087   0.331  55.126

                     1                      2                      3
                     A                      A                      A
 Frequencies --   137.9231               204.9996               238.6905
 Red. masses --     1.5651                 1.0258                 1.3252
 Frc consts  --     0.0175                 0.0254                 0.0445
 IR Inten    --     0.0759                 0.1329                 0.2986

                     4                      5                      6
                     A                      A                      A
 Frequencies --   318.1153               429.8749               491.3834
 Red. masses --     1.8405                 1.7200                 1.3469
 Frc consts  --     0.1097                 0.1873                 0.1916
 IR Inten    --     0.2132                 8.2330                42.7926

                     7                      8                      9
                     A                      A                      A
 Frequencies --   774.1640               822.8261               856.6183
 Red. masses --     1.2265                 1.2788                 2.6403
 Frc consts  --     0.4331                 0.5101                 1.1415
 IR Inten    --     1.5219                 0.5856                 0.6764

                    10                     11                     12
                     A                      A                      A
 Frequencies --   956.6495              1004.2625              1074.4128
 Red. masses --     1.1722                 1.8871                 1.7215
 Frc consts  --     0.6320                 1.1213                 1.1709
 IR Inten    --     1.2705                 1.0993                 1.5021

                    13                     14                     15
                     A                      A                      A
 Frequencies --  1110.8396              1184.0021              1235.5375
 Red. masses --     2.0502                 1.8439                 1.2892
 Frc consts  --     1.4906                 1.5230                 1.1595
 IR Inten    --     0.1840                 0.3842                 0.4992

                    16                     17                     18
                     A                      A                      A
 Frequencies --  1293.9223              1364.3973              1375.8293
 Red. masses --     1.2310                 1.3392                 1.4857
 Frc consts  --     1.2143                 1.4689                 1.6569
 IR Inten    --     0.2973                 1.1481                 0.6877

                    19                     20                     21
                     A                      A                      A
 Frequencies --  1412.5326              1463.9412              1474.5823
 Red. masses --     1.2789                 1.1595                 1.1083
 Frc consts  --     1.5034                 1.4640                 1.4198
 IR Inten    --     5.8222                 1.8739                 2.6838

                    22                     23                     24
                     A                      A                      A
 Frequencies --  1495.0334              1502.6552              1508.7511
 Red. masses --     1.0655                 1.0421                 1.0771
 Frc consts  --     1.4031                 1.3863                 1.4446
 IR Inten    --     0.7304                 9.5964                 5.2996

                    25                     26                     27
                     A                      A                      A
 Frequencies --  2977.9693              3041.2795              3043.7721
 Red. masses --     1.0704                 1.0567                 1.0419
 Frc consts  --     5.5928                 5.7585                 5.6874
 IR Inten    --    23.4867                 8.4474                26.2470

                    28                     29                     30
                     A                      A                      A
 Frequencies --  3058.1911              3081.0065              3114.6244
 Red. masses --     1.0861                 1.1019                 1.1025
 Frc consts  --     5.9846                 6.1628                 6.3016
 IR Inten    --    22.2647                16.3382                34.8936

                    31                     32                     33
                     A                      A                      A
 Frequencies --  3117.8329              3160.6934              3262.2224
 Red. masses --     1.1019                 1.0515                 1.1183
 Frc consts  --     6.3111                 6.1889                 7.0119
 IR Inten    --    26.5168                10.6225                 7.9854

 - Thermochemistry -
 -------------------
 Temperature   298.150 Kelvin.  Pressure   1.00000 Atm.
 Atom     1 has atomic number  6 and mass  12.00000

 Molecular mass:    57.07043 amu.
 Principal axes and moments of inertia in atomic units:
                           1         2         3
     Eigenvalues --   130.87715 356.15373 415.98075
           X            0.99999   0.00383   0.00085
           Y           -0.00383   0.99994   0.00981
           Z           -0.00081  -0.00981   0.99995
 This molecule is an asymmetric top.
 Rotational symmetry number  1.
 Rotational temperatures (Kelvin)      0.66179     0.24319     0.20822
 Rotational constants (GHZ):          13.78958     5.06731     4.33852
 Zero-point vibrational energy     308573.9 (Joules/Mol)
                                   73.75094 (Kcal/Mol)
 Warning -- explicit consideration of   6 degrees of freedom as
           vibrations may cause significant error
 Vibrational temperatures:    198.44   294.95   343.42   457.70   618.49
          (Kelvin)            706.99  1113.85  1183.86  1232.48  1376.40
                             1444.91  1545.84  1598.25  1703.51  1777.66
                             1861.66  1963.06  1979.51  2032.32  2106.28
                             2121.59  2151.02  2161.98  2170.75  4284.63
                             4375.72  4379.30  4400.05  4432.88  4481.24
                             4485.86  4547.53  4693.60

 Zero-point correction=                           0.117530 (Hartree/Particle)
 Thermal correction to Energy=                    0.123439
 Thermal correction to Enthalpy=                  0.124383
 Thermal correction to Gibbs Free Energy=         0.088921
 Sum of electronic and zero-point Energies=           -157.626209
 Sum of electronic and thermal Energies=              -157.620300
 Sum of electronic and thermal Enthalpies=            -157.619356
 Sum of electronic and thermal Free Energies=         -157.654818

                     E (Thermal)             CV                S
                      KCal/Mol        Cal/Mol-Kelvin    Cal/Mol-Kelvin
 Total                   77.459             20.324             74.636
 Electronic               0.000              0.000              1.377
 Translational            0.889              2.981             38.046
 Rotational               0.889              2.981             24.476
 Vibrational             75.682             14.362             10.736
 Vibration     1          0.614              1.915              2.832
 Vibration     2          0.640              1.833              2.088
 Vibration     3          0.657              1.781              1.813
 Vibration     4          0.705              1.639              1.320
 Vibration     5          0.791              1.405              0.859
 Vibration     6          0.847              1.269              0.680

 Normal termination of Gaussian 09 at Tue May  8 10:53:59 2018.
