 Gaussian 09, Revision B.01,
 Gaussian 09:  EM64L-G09RevB.01 12-Aug-2010

 --------------------------------------------------------------
 # m062x/6-311+g(2df,2p) opt=(verytight,gdiis) freq IOP(2/16=3)
 --------------------------------------------------------------

 ------------------------
 InChI=1S/H2O2/c1-2/h1-2H
 ------------------------
 Symbolic Z-matrix:
 Charge =  0 Multiplicity = 1

 SCF Done:  E(RM062X) =  -151.535859011     A.U. after   12 cycles
 SCF Done:  E(RM062X) =  -151.543392735     A.U. after   13 cycles
 SCF Done:  E(RM062X) =  -151.544567942     A.U. after   14 cycles
 SCF Done:  E(RM062X) =  -151.544777189     A.U. after   12 cycles
 SCF Done:  E(RM062X) =  -151.544803758     A.U. after   13 cycles
 SCF Done:  E(RM062X) =  -151.544813004     A.U. after   13 cycles
 SCF Done:  E(RM062X) =  -151.544813126     A.U. after   13 cycles
 SCF Done:  E(RM062X) =  -151.544813121     A.U. after   13 cycles
 SCF Done:  E(RM062X) =  -151.544813120     A.U. after   13 cycles
 Optimization completed.
    -- Stationary point found.
 Normal termination of Gaussian 09 at Thu May 11 12:25:38 2017.

 ----------------------------------------------------------------------
 #N Geom=AllCheck Guess=TCheck SCRF=Check Test GenChk RM062X/6-311+G(2d
 f,2p) Freq
 ----------------------------------------------------------------------

 InChI=1S/H2O2/c1-2/h1-2H
 ------------------------
 Redundant internal coordinates taken from checkpoint file:
 /home/harms.n/Code/RMG-Py/scripts/Gau-9374.chk
 Charge =  0 Multiplicity = 1

                         Standard orientation:
 ---------------------------------------------------------------------
 Center     Atomic      Atomic             Coordinates (Angstroms)
 Number     Number       Type             X           Y           Z
 ---------------------------------------------------------------------
      1          8           0        0.700645    0.115072   -0.057376
      2          8           0       -0.700645   -0.115072   -0.057376
      3          1           0        1.019382   -0.632731    0.459008
      4          1           0       -1.019382    0.632732    0.459008
 ---------------------------------------------------------------------

 SCF Done:  E(RM062X) =  -151.544813120     A.U. after    1 cycles

 The electronic state is 1-A.
 Alpha  occ. eigenvalues --  -19.68805 -19.68787  -1.26797  -1.01802  -0.62400
 Alpha  occ. eigenvalues --   -0.59309  -0.51886  -0.41023  -0.37252
 Alpha virt. eigenvalues --    0.05149   0.06236   0.12265   0.16082   0.18181
 Alpha virt. eigenvalues --    0.18810   0.20709   0.20872   0.21764   0.28434
 Alpha virt. eigenvalues --    0.33603   0.50180   0.51459   0.68620   0.69266

 Mulliken atomic charges:
              1
     1  O   -0.266325
     2  O   -0.266324
     3  H    0.266325
     4  H    0.266325
 Sum of Mulliken atomic charges =   0.00000

 Dipole moment (field-independent basis, Debye):
    X=              0.0000    Y=              0.0000    Z=              1.8205  Tot=              1.8205
 Quadrupole moment (field-independent basis, Debye-Ang):
   XX=            -10.4858   YY=            -10.7455   ZZ=            -11.8817
   XY=             -3.1699   XZ=              0.0000   YZ=              0.0000

  Exact polarizability:  16.978  -0.895  11.533   0.000   0.000  10.803
 Approx polarizability:  18.321  -0.678  12.728   0.000   0.000  11.526

                     1                      2                      3
                     A                      A                      A
 Frequencies --   385.0294              1048.0028              1369.6372
 Red. masses --     1.0831                14.5991                 1.1078
 Frc consts  --     0.0946                 9.4471                 1.2244
 IR Inten    --   189.4261                 0.8651                99.9458

                     4                      5                      6
                     A                      A                      A
 Frequencies --  1485.2268              3855.9292              3856.6745
 Red. masses --     1.0923                 1.0673                 1.0695
 Frc consts  --     1.4196                 9.3495                 9.3722
 IR Inten    --     0.3113                78.8269                22.2232

 - Thermochemistry -
 -------------------
 Temperature   298.150 Kelvin.  Pressure   1.00000 Atm.
 Atom     1 has atomic number  8 and mass  15.99491

 Molecular mass:    34.00548 amu.
 Principal axes and moments of inertia in atomic units:
                           1         2         3
     Eigenvalues --     5.84945  65.71556  67.95380
           X            0.99707  -0.07652   0.00000
           Y            0.07652   0.99707   0.00000
           Z            0.00000   0.00000   1.00000
 This molecule is an asymmetric top.
 Rotational symmetry number  1.
 Rotational temperatures (Kelvin)     14.80718     1.31801     1.27460
 Rotational constants (GHZ):         308.53200    27.46292    26.55836
 Zero-point vibrational energy      71778.9 (Joules/Mol)
                                   17.15558 (Kcal/Mol)
 Warning -- explicit consideration of   1 degrees of freedom as
           vibrations may cause significant error
 Vibrational temperatures:    553.97  1507.84  1970.60  2136.91  5547.82
          (Kelvin)           5548.89

 Zero-point correction=                           0.027339 (Hartree/Particle)
 Thermal correction to Energy=                    0.030540
 Thermal correction to Enthalpy=                  0.031484
 Thermal correction to Gibbs Free Energy=         0.005095
 Sum of electronic and zero-point Energies=           -151.517474
 Sum of electronic and thermal Energies=              -151.514273
 Sum of electronic and thermal Enthalpies=            -151.513329
 Sum of electronic and thermal Free Energies=         -151.539718

                     E (Thermal)             CV                S
                      KCal/Mol        Cal/Mol-Kelvin    Cal/Mol-Kelvin
 Total                   19.164              7.987             55.540
 Electronic               0.000              0.000              0.000
 Translational            0.889              2.981             36.503
 Rotational               0.889              2.981             17.908
 Vibrational             17.387              2.026              1.129
 Vibration     1          0.754              1.502              1.019

 Optimization completed.
    -- Stationary point found.
 Normal termination of Gaussian 09 at Thu May 11 12:26:22 2017.
