 Gaussian 09, Revision B.01,
 Gaussian 09:  EM64L-G09RevB.01 12-Aug-2010

 ---------------------------------------------------------------
 #p m062x/6-311+g(2df,2p) opt=(verytight,gdiis) freq IOP(2/16=3)
 ---------------------------------------------------------------

 ------------------------------
 Gaussian input prepared by ASE
 ------------------------------
 Symbolic Z-matrix:
 Charge =  0 Multiplicity = 2

 SCF Done:  E(UM062X) =  -150.899245539     A.U. after   17 cycles
 SCF Done:  E(UM062X) =  -150.900041750     A.U. after   14 cycles
 SCF Done:  E(UM062X) =  -150.900056524     A.U. after   10 cycles
 SCF Done:  E(UM062X) =  -150.900060410     A.U. after    9 cycles
 SCF Done:  E(UM062X) =  -150.900060458     A.U. after    8 cycles
 SCF Done:  E(UM062X) =  -150.900060458     A.U. after    4 cycles
 Optimization completed.
    -- Stationary point found.
 Normal termination of Gaussian 09 at Tue May  8 20:45:29 2018.

 ----------------------------------------------------------------------
 #P Geom=AllCheck Guess=TCheck SCRF=Check Test GenChk UM062X/6-311+G(2d
 f,2p) Freq
 ----------------------------------------------------------------------

 Gaussian input prepared by ASE
 ------------------------------
 Redundant internal coordinates taken from checkpoint file:
 /home/harms.n/Code/AutoTST/Gau-41061.chk
 Charge =  0 Multiplicity = 2

                         Standard orientation:
 ---------------------------------------------------------------------
 Center     Atomic      Atomic             Coordinates (Angstroms)
 Number     Number       Type             X           Y           Z
 ---------------------------------------------------------------------
      1          8           0        0.054953    0.706935    0.000000
      2          8           0        0.054953   -0.598577    0.000000
      3          1           0       -0.879245   -0.866862    0.000000
 ---------------------------------------------------------------------

 SCF Done:  E(UM062X) =  -150.900060458     A.U. after    1 cycles

 The electronic state is 2-A".
 Alpha  occ. eigenvalues --  -19.75675 -19.71539  -1.35303  -0.99618  -0.66510
 Alpha  occ. eigenvalues --   -0.60581  -0.58023  -0.39328  -0.39228
 Alpha virt. eigenvalues --    0.04327   0.10153   0.14588   0.14896   0.19175
 Alpha virt. eigenvalues --    0.21182   0.22108   0.23348   0.24665   0.34623
 Alpha virt. eigenvalues --    0.47434   0.69106   0.72840   0.87932   0.94747

  Beta  occ. eigenvalues --  -19.74930 -19.70061  -1.32005  -0.94762  -0.64568
  Beta  occ. eigenvalues --   -0.55684  -0.50389  -0.36446
  Beta virt. eigenvalues --   -0.07058   0.04741   0.10445   0.14716   0.15497
  Beta virt. eigenvalues --    0.19271   0.21452   0.22582   0.23438   0.26632
  Beta virt. eigenvalues --    0.34331   0.47700   0.69447   0.72963   0.88080

 Mulliken atomic charges:
              1
     1  O   -0.170456
     2  O   -0.101955
     3  H    0.272412
 Sum of Mulliken atomic charges =   0.00000

 Dipole moment (field-independent basis, Debye):
    X=             -1.7525    Y=             -1.4647    Z=              0.0000  Tot=              2.2839
 Quadrupole moment (field-independent basis, Debye-Ang):
   XX=             -9.9641   YY=            -11.0420   ZZ=            -11.0727
   XY=              1.7096   XZ=              0.0000   YZ=              0.0000

  Exact polarizability:   9.575   1.537  16.744   0.000   0.000   7.721
 Approx polarizability:  10.166   1.428  18.801   0.000   0.000   8.232

                     1                      2                      3
                    A'                     A'                     A'
 Frequencies --  1268.7342              1473.7114              3711.9501
 Red. masses --    11.4916                 1.1522                 1.0680
 Frc consts  --    10.8986                 1.4744                 8.6702
 IR Inten    --    43.3414                39.9022                46.5469

 - Thermochemistry -
 -------------------
 Temperature   298.150 Kelvin.  Pressure   1.00000 Atm.
 Atom     1 has atomic number  8 and mass  15.99491

 Molecular mass:    32.99765 amu.
 Principal axes and moments of inertia in atomic units:
                           1         2         3
     Eigenvalues --     2.86023  51.82024  54.68047
           X            0.06143   0.99811   0.00000
           Y            0.99811  -0.06143   0.00000
           Z            0.00000   0.00000   1.00000
 This molecule is an asymmetric top.
 Rotational symmetry number  1.
 Rotational temperatures (Kelvin)     30.28207     1.67143     1.58400
 Rotational constants (GHZ):         630.97675    34.82696    33.00522
 Zero-point vibrational energy      38605.9 (Joules/Mol)
                                    9.22702 (Kcal/Mol)
 Vibrational temperatures:   1825.42  2120.34  5340.66
          (Kelvin)

 Zero-point correction=                           0.014704 (Hartree/Particle)
 Thermal correction to Energy=                    0.017555
 Thermal correction to Enthalpy=                  0.018499
 Thermal correction to Gibbs Free Energy=        -0.007434
 Sum of electronic and zero-point Energies=           -150.885356
 Sum of electronic and thermal Energies=              -150.882506
 Sum of electronic and thermal Enthalpies=            -150.881561
 Sum of electronic and thermal Free Energies=         -150.907494

                     E (Thermal)             CV                S
                      KCal/Mol        Cal/Mol-Kelvin    Cal/Mol-Kelvin
 Total                   11.016              6.208             54.580
 Electronic               0.000              0.000              1.377
 Translational            0.889              2.981             36.413
 Rotational               0.889              2.981             16.746
 Vibrational              9.238              0.246              0.044

 Optimization completed.
    -- Stationary point found.
 Normal termination of Gaussian 09 at Tue May  8 20:46:28 2018.
