 Gaussian 09, Revision B.01,
 Gaussian 09:  EM64L-G09RevB.01 12-Aug-2010

 ---------------------------------------------------------
 #p m062x/6-311+g(2df,2p) opt=(ts,calcfc,noeigentest) freq
 ---------------------------------------------------------

 ------------------------------
 Gaussian input prepared by ASE
 ------------------------------
 Symbolic Z-matrix:
 Charge =  0 Multiplicity = 2

 SCF Done:  E(UM062X) =  -309.280039736     A.U. after   17 cycles
 SCF Done:  E(UM062X) =  -309.280213705     A.U. after   14 cycles
 SCF Done:  E(UM062X) =  -309.280215573     A.U. after   13 cycles
 SCF Done:  E(UM062X) =  -309.280217388     A.U. after   11 cycles
 SCF Done:  E(UM062X) =  -309.280217478     A.U. after    8 cycles
 Optimization completed.
    -- Stationary point found.
 Normal termination of Gaussian 09 at Wed May  9 01:18:27 2018.

 ----------------------------------------------------------------------
 #P Geom=AllCheck Guess=TCheck SCRF=Check GenChk UM062X/6-311+G(2df,2p)
  Freq
 ----------------------------------------------------------------------

 Gaussian input prepared by ASE
 ------------------------------
 Redundant internal coordinates taken from checkpoint file:
 /home/harms.n/Code/AutoTST/Gau-12995.chk
 Charge =  0 Multiplicity = 2

                         Standard orientation:
 ---------------------------------------------------------------------
 Center     Atomic      Atomic             Coordinates (Angstroms)
 Number     Number       Type             X           Y           Z
 ---------------------------------------------------------------------
      1          8           0        2.029213   -0.180170    0.699139
      2          8           0        2.240361   -0.971837   -0.416722
      3          6           0        0.463047    1.505623   -0.287898
      4          6           0       -2.616490   -0.822839    0.104161
      5          6           0       -0.915498    1.057537    0.104345
      6          6           0       -1.171036   -0.424450   -0.164644
      7          1           0        1.565564   -1.657432   -0.336867
      8          1           0        1.327841    0.683220    0.305545
      9          1           0        0.742810    1.309607   -1.321920
     10          1           0        0.773984    2.486676    0.059528
     11          1           0       -2.780360   -1.884415   -0.076037
     12          1           0       -3.298228   -0.263913   -0.538075
     13          1           0       -2.888941   -0.612681    1.139390
     14          1           0       -1.651169    1.650467   -0.455634
     15          1           0       -1.096894    1.273142    1.159976
     16          1           0       -0.907672   -0.651001   -1.201847
     17          1           0       -0.503659   -1.012840    0.470816
 ---------------------------------------------------------------------

 SCF Done:  E(UM062X) =  -309.280217478     A.U. after    1 cycles

 The electronic state is 2-A.
 Alpha  occ. eigenvalues --  -19.69008 -19.68752 -10.55276 -10.54529 -10.54147
 Alpha  occ. eigenvalues --  -10.52987  -1.27259  -0.99020  -0.91357  -0.83525
 Alpha  occ. eigenvalues --   -0.73227  -0.68029  -0.62345  -0.58420  -0.55428
 Alpha  occ. eigenvalues --   -0.52846  -0.51013  -0.50752  -0.48074  -0.44461
 Alpha  occ. eigenvalues --   -0.41934  -0.40917  -0.40014  -0.39282  -0.37790
 Alpha  occ. eigenvalues --   -0.29942
 Alpha virt. eigenvalues --    0.01097   0.02208   0.02901   0.03705   0.05283
 Alpha virt. eigenvalues --    0.06062   0.06294   0.07057   0.07484   0.08814
 Alpha virt. eigenvalues --    0.09951   0.10692   0.10792   0.13514   0.15032

  Beta  occ. eigenvalues --  -19.68853 -19.67793 -10.54794 -10.54552 -10.54136
  Beta  occ. eigenvalues --  -10.52988  -1.25565  -0.96548  -0.90863  -0.82624
  Beta  occ. eigenvalues --   -0.72220  -0.67338  -0.61069  -0.55495  -0.54410
  Beta  occ. eigenvalues --   -0.51447  -0.50446  -0.49563  -0.47196  -0.43979
  Beta  occ. eigenvalues --   -0.41338  -0.40470  -0.39761  -0.36442  -0.35696
  Beta virt. eigenvalues --   -0.08253   0.01109   0.02186   0.02920   0.03734
  Beta virt. eigenvalues --    0.05292   0.06117   0.06409   0.07017   0.07591
  Beta virt. eigenvalues --    0.08857   0.09999   0.10776   0.10852   0.13680

 Mulliken atomic charges:
              1
     1  O   -0.275083
     2  O   -0.201834
     3  C   -0.610450
     4  C   -0.562912
     5  C   -0.185893
     6  C   -0.239623
     7  H    0.251531
     8  H    0.366985
     9  H    0.191319
    10  H    0.168655
    11  H    0.136245
    12  H    0.140075
    13  H    0.139309
    14  H    0.159002
    15  H    0.173931
    16  H    0.177825
    17  H    0.170917
 Sum of Mulliken atomic charges =   0.00000

 Dipole moment (field-independent basis, Debye):
    X=             -2.6730    Y=              0.0529    Z=             -0.6005  Tot=              2.7401
 Quadrupole moment (field-independent basis, Debye-Ang):
   XX=            -47.7897   YY=            -35.2454   ZZ=            -40.4071
   XY=              0.5748   XZ=             -0.7754   YZ=              0.5382

  Exact polarizability:  81.101  -9.603  75.038   1.669  -0.971  56.022
 Approx polarizability:  81.179 -11.402  83.724   2.647  -0.093  71.941

 ******    1 imaginary frequencies (negative Signs) ******

                     1                      2                      3
                     A                      A                      A
 Frequencies -- -1875.0661                55.4562                96.3044
 Red. masses --     1.1015                 2.4894                 2.4720
 Frc consts  --     2.2817                 0.0045                 0.0135
 IR Inten    --  1436.6714                 1.1397                 1.5015

                     4                      5                      6
                     A                      A                      A
 Frequencies --   119.3215               162.2548               182.4915
 Red. masses --     3.2239                 3.0895                 2.9055
 Frc consts  --     0.0270                 0.0479                 0.0570
 IR Inten    --     4.6974                 3.5401                 1.5305

                     7                      8                      9
                     A                      A                      A
 Frequencies --   237.9590               273.2335               387.6728
 Red. masses --     1.1578                 2.1076                 1.2319
 Frc consts  --     0.0386                 0.0927                 0.1091
 IR Inten    --     0.1322                 0.3953               129.0116

                    10                     11                     12
                     A                      A                      A
 Frequencies --   443.1685               570.3897               611.9425
 Red. masses --     2.2827                 2.2149                 1.7863
 Frc consts  --     0.2641                 0.4246                 0.3941
 IR Inten    --    22.6404                 0.3852                 0.6262

                    13                     14                     15
                     A                      A                      A
 Frequencies --   745.6325               827.4156               852.7312
 Red. masses --     1.1007                 1.1353                 1.8642
 Frc consts  --     0.3606                 0.4579                 0.7987
 IR Inten    --     5.9176                 1.3102                 0.4531

                    16                     17                     18
                     A                      A                      A
 Frequencies --   949.8825               982.2068              1046.8122
 Red. masses --     1.1506                 1.1707                 2.6730
 Frc consts  --     0.6116                 0.6654                 1.7258
 IR Inten    --     9.1632                 3.7809                10.5518

                    19                     20                     21
                     A                      A                      A
 Frequencies --  1079.2306              1083.9366              1138.1531
 Red. masses --     2.2457                 4.7832                 1.7418
 Frc consts  --     1.5411                 3.3111                 1.3294
 IR Inten    --    34.7038                11.3475                 7.4168

                    22                     23                     24
                     A                      A                      A
 Frequencies --  1193.2790              1217.6816              1266.9003
 Red. masses --     1.8151                 1.3885                 1.2965
 Frc consts  --     1.5228                 1.2130                 1.2261
 IR Inten    --     2.9188                 5.6619                 2.9573

                    25                     26                     27
                     A                      A                      A
 Frequencies --  1312.8151              1333.8680              1394.9252
 Red. masses --     1.2420                 1.1744                 1.6029
 Frc consts  --     1.2611                 1.2311                 1.8376
 IR Inten    --     1.4158                 0.8699                 1.4529

                    28                     29                     30
                     A                      A                      A
 Frequencies --  1417.4900              1434.6436              1459.0496
 Red. masses --     1.2556                 1.1137                 1.0531
 Frc consts  --     1.4864                 1.3506                 1.3209
 IR Inten    --     2.4798                47.0458                 3.6295

                    31                     32                     33
                     A                      A                      A
 Frequencies --  1461.8602              1479.1670              1502.9038
 Red. masses --     1.1278                 1.0983                 1.0427
 Frc consts  --     1.4201                 1.4158                 1.3876
 IR Inten    --     3.6090                 2.4369                 3.2851

                    34                     35                     36
                     A                      A                      A
 Frequencies --  1507.0689              1517.5879              2994.2939
 Red. masses --     1.0394                 1.0901                 1.0694
 Frc consts  --     1.3909                 1.4792                 5.6490
 IR Inten    --     7.4887                 3.1529                 7.8544

                    37                     38                     39
                     A                      A                      A
 Frequencies --  3044.7038              3049.6320              3069.4303
 Red. masses --     1.0577                 1.0385                 1.0908
 Frc consts  --     5.7771                 5.6907                 6.0551
 IR Inten    --     9.7529                30.3037                 7.9902

                    40                     41                     42
                     A                      A                      A
 Frequencies --  3088.3999              3096.7926              3119.9736
 Red. masses --     1.0987                 1.0573                 1.1031
 Frc consts  --     6.1746                 5.9741                 6.3263
 IR Inten    --     9.6410                14.2002                32.1907

                    43                     44                     45
                     A                      A                      A
 Frequencies --  3129.4339              3183.9308              3817.9922
 Red. masses --     1.1018                 1.1108                 1.0681
 Frc consts  --     6.3578                 6.6343                 9.1737
 IR Inten    --    20.1359                 8.2943                36.5571

 - Thermochemistry -
 -------------------
 Temperature   298.150 Kelvin.  Pressure   1.00000 Atm.
 Atom     1 has atomic number  8 and mass  15.99491

 Molecular mass:    91.07590 amu.
 Principal axes and moments of inertia in atomic units:
                           1         2         3
     Eigenvalues --   379.948291118.974061363.37254
           X            0.99957   0.02841  -0.00711
           Y           -0.02844   0.99959  -0.00362
           Z            0.00701   0.00383   0.99997
 This molecule is an asymmetric top.
 Rotational symmetry number  1.
 Rotational temperatures (Kelvin)      0.22796     0.07740     0.06353
 Rotational constants (GHZ):           4.74997     1.61285     1.32373
    1 imaginary frequencies ignored.
 Zero-point vibrational energy     376464.9 (Joules/Mol)
                                   89.97727 (Kcal/Mol)
 Warning -- explicit consideration of  11 degrees of freedom as
           vibrations may cause significant error
 Vibrational temperatures:     79.79   138.56   171.68   233.45   262.56
          (Kelvin)            342.37   393.12   557.77   637.62   820.66
                              880.45  1072.80  1190.47  1226.89  1366.67
                             1413.17  1506.13  1552.77  1559.54  1637.55
                             1716.86  1751.97  1822.78  1888.85  1919.14
                             2006.98  2039.45  2064.13  2099.24  2103.29
                             2128.19  2162.34  2168.33  2183.47  4308.12
                             4380.64  4387.73  4416.22  4443.51  4455.59
                             4488.94  4502.55  4580.96  5493.23

 Zero-point correction=                           0.143388 (Hartree/Particle)
 Thermal correction to Energy=                    0.152114
 Thermal correction to Enthalpy=                  0.153058
 Thermal correction to Gibbs Free Energy=         0.109214
 Sum of electronic and zero-point Energies=           -309.136830
 Sum of electronic and thermal Energies=              -309.128103
 Sum of electronic and thermal Enthalpies=            -309.127159
 Sum of electronic and thermal Free Energies=         -309.171003

                     E (Thermal)             CV                S
                      KCal/Mol        Cal/Mol-Kelvin    Cal/Mol-Kelvin
 Total                   95.453             29.590             92.277
 Electronic               0.000              0.000              1.377
 Translational            0.889              2.981             39.439
 Rotational               0.889              2.981             27.852
 Vibrational             93.676             23.628             23.609
 Vibration     1          0.596              1.975              4.613
 Vibration     2          0.603              1.952              3.528
 Vibration     3          0.609              1.933              3.111
 Vibration     4          0.622              1.889              2.523
 Vibration     5          0.630              1.864              2.303
 Vibration     6          0.656              1.783              1.818
 Vibration     7          0.676              1.723              1.576
 Vibration     8          0.756              1.497              1.009
 Vibration     9          0.803              1.376              0.817
 Vibration    10          0.926              1.095              0.503
 Vibration    11          0.971              1.007              0.430

 Optimization completed.
    -- Stationary point found.
 Normal termination of Gaussian 09 at Wed May  9 01:44:25 2018.
