 Gaussian 09, Revision B.01,
 Gaussian 09:  EM64L-G09RevB.01 12-Aug-2010

 -------------------------------------------------------------
 #p m062x/6-311+g(2df,2p) opt=(ts,calcfc,noeigentest,ModRedun)
 -------------------------------------------------------------

 ------------------------------
 Gaussian input prepared by ASE
 ------------------------------
 Symbolic Z-matrix:
 Charge =  0 Multiplicity = 2

 SCF Done:  E(UM062X) =  -309.280305323     A.U. after   17 cycles

  Exact polarizability:   0.000   0.000   0.000   0.000   0.000   0.000
 Approx polarizability:  79.346  -9.838  82.513   2.355  -0.009  72.205

 SCF Done:  E(UM062X) =  -309.280036975     A.U. after   14 cycles
 SCF Done:  E(UM062X) =  -309.280039736     A.U. after   13 cycles
 Optimization completed.
    -- Stationary point found.

                         Standard orientation:
 ---------------------------------------------------------------------
 Center     Atomic      Atomic             Coordinates (Angstroms)
 Number     Number       Type             X           Y           Z
 ---------------------------------------------------------------------
      1          8           0        1.994200   -0.228996    0.718505
      2          8           0        2.183620   -0.963586   -0.437866
      3          6           0        0.500199    1.505445   -0.273539
      4          6           0       -2.600910   -0.807107    0.097116
      5          6           0       -0.894038    1.072091    0.084075
      6          6           0       -1.148334   -0.417829   -0.144325
      7          1           0        1.474246   -1.617827   -0.414903
      8          1           0        1.330993    0.681388    0.357120
      9          1           0        0.827235    1.275253   -1.288251
     10          1           0        0.805409    2.491930    0.066559
     11          1           0       -2.755595   -1.874775   -0.052038
     12          1           0       -3.265703   -0.273372   -0.581484
     13          1           0       -2.904234   -0.567108    1.117130
     14          1           0       -1.613458    1.648767   -0.512442
     15          1           0       -1.102670    1.322881    1.127096
     16          1           0       -0.862021   -0.676054   -1.168535
     17          1           0       -0.498258   -0.986032    0.524663
 ---------------------------------------------------------------------

 The electronic state is 2-A.
 Alpha  occ. eigenvalues --  -19.69006 -19.68780 -10.55288 -10.54569 -10.54184
 Alpha  occ. eigenvalues --  -10.53002  -1.27346  -0.98998  -0.91349  -0.83546
 Alpha  occ. eigenvalues --   -0.73270  -0.68131  -0.62333  -0.58425  -0.55477
 Alpha  occ. eigenvalues --   -0.52906  -0.50985  -0.50719  -0.48123  -0.44451
 Alpha  occ. eigenvalues --   -0.41992  -0.40926  -0.40101  -0.39274  -0.37770
 Alpha  occ. eigenvalues --   -0.29910
 Alpha virt. eigenvalues --    0.01071   0.02191   0.02894   0.03731   0.05273
 Alpha virt. eigenvalues --    0.06059   0.06267   0.07064   0.07465   0.08902
 Alpha virt. eigenvalues --    0.09906   0.10744   0.10806   0.13532   0.15044

  Beta  occ. eigenvalues --  -19.68850 -19.67816 -10.54810 -10.54592 -10.54173
  Beta  occ. eigenvalues --  -10.53003  -1.25644  -0.96523  -0.90861  -0.82641
  Beta  occ. eigenvalues --   -0.72259  -0.67432  -0.61075  -0.55418  -0.54503
  Beta  occ. eigenvalues --   -0.51553  -0.50416  -0.49510  -0.47264  -0.43958
  Beta  occ. eigenvalues --   -0.41379  -0.40491  -0.39794  -0.36379  -0.35768
  Beta virt. eigenvalues --   -0.08196   0.01089   0.02177   0.02917   0.03755
  Beta virt. eigenvalues --    0.05284   0.06124   0.06385   0.07020   0.07576
  Beta virt. eigenvalues --    0.08949   0.09972   0.10768   0.10898   0.13706

 Mulliken atomic charges:
              1
     1  O   -0.260888
     2  O   -0.207949
     3  C   -0.615465
     4  C   -0.570017
     5  C   -0.163003
     6  C   -0.257104
     7  H    0.254280
     8  H    0.350632
     9  H    0.195089
    10  H    0.169404
    11  H    0.136365
    12  H    0.140604
    13  H    0.139306
    14  H    0.158765
    15  H    0.173296
    16  H    0.177695
    17  H    0.178990
 Sum of Mulliken atomic charges =   0.00000

 Dipole moment (field-independent basis, Debye):
    X=             -2.6701    Y=              0.1549    Z=             -0.6606  Tot=              2.7550
 Quadrupole moment (field-independent basis, Debye-Ang):
   XX=            -47.6200   YY=            -35.5376   ZZ=            -40.3486
   XY=              0.9571   XZ=             -0.8680   YZ=              0.8269

 Normal termination of Gaussian 09 at Wed May  9 00:38:57 2018.
