 Gaussian 09, Revision B.01,
 Gaussian 09:  EM64L-G09RevB.01 12-Aug-2010

 -----------------------------------------------------------
 #p m062x/6-311+g(2df,2p) Opt=(ModRedun,Loose) Int(Grid=SG1)
 -----------------------------------------------------------

 ------------------------------
 Gaussian input prepared by ASE
 ------------------------------
 Symbolic Z-matrix:
 Charge =  0 Multiplicity = 2

 SCF Done:  E(UM062X) =  -309.237803603     A.U. after   19 cycles
 SCF Done:  E(UM062X) =  -309.260268175     A.U. after   16 cycles
 SCF Done:  E(UM062X) =  -309.273745213     A.U. after   18 cycles
 SCF Done:  E(UM062X) =  -309.278947915     A.U. after   18 cycles
 SCF Done:  E(UM062X) =  -309.278220204     A.U. after   17 cycles
 SCF Done:  E(UM062X) =  -309.279071234     A.U. after   17 cycles
 SCF Done:  E(UM062X) =  -309.279065036     A.U. after   13 cycles
 SCF Done:  E(UM062X) =  -309.279191556     A.U. after   12 cycles
 SCF Done:  E(UM062X) =  -309.279239679     A.U. after   13 cycles
 SCF Done:  E(UM062X) =  -309.279274331     A.U. after   12 cycles
 SCF Done:  E(UM062X) =  -309.278910495     A.U. after   14 cycles
 SCF Done:  E(UM062X) =  -309.280035265     A.U. after   14 cycles
 SCF Done:  E(UM062X) =  -309.279953993     A.U. after   14 cycles
 SCF Done:  E(UM062X) =  -309.280114639     A.U. after   14 cycles
 SCF Done:  E(UM062X) =  -309.280135443     A.U. after   14 cycles
 SCF Done:  E(UM062X) =  -309.280131306     A.U. after   13 cycles
 SCF Done:  E(UM062X) =  -309.280138849     A.U. after   12 cycles
 SCF Done:  E(UM062X) =  -309.280149951     A.U. after   12 cycles
 SCF Done:  E(UM062X) =  -309.280152249     A.U. after   11 cycles
 SCF Done:  E(UM062X) =  -309.280153063     A.U. after   11 cycles
 Optimization completed.
    -- Stationary point found.

                         Standard orientation:
 ---------------------------------------------------------------------
 Center     Atomic      Atomic             Coordinates (Angstroms)
 Number     Number       Type             X           Y           Z
 ---------------------------------------------------------------------
      1          8           0        1.980204   -0.231953    0.724509
      2          8           0        2.187042   -0.961948   -0.441215
      3          6           0        0.494390    1.511943   -0.277592
      4          6           0       -2.597409   -0.808676    0.095399
      5          6           0       -0.891335    1.071268    0.086056
      6          6           0       -1.145063   -0.418250   -0.145570
      7          1           0        1.477950   -1.616537   -0.419510
      8          1           0        1.362874    0.673963    0.368092
      9          1           0        0.829482    1.278194   -1.286281
     10          1           0        0.807508    2.491861    0.071223
     11          1           0       -2.751683   -1.876077   -0.056074
     12          1           0       -3.262610   -0.273723   -0.581840
     13          1           0       -2.900558   -0.571062    1.116024
     14          1           0       -1.611159    1.648958   -0.508992
     15          1           0       -1.099791    1.319662    1.129685
     16          1           0       -0.858918   -0.674088   -1.170426
     17          1           0       -0.494565   -0.987657    0.521983
 ---------------------------------------------------------------------

 The electronic state is 2-A.
 Alpha  occ. eigenvalues --  -19.68505 -19.68251 -10.55679 -10.54828 -10.54332
 Alpha  occ. eigenvalues --  -10.53140  -1.26612  -0.98919  -0.91502  -0.83689
 Alpha  occ. eigenvalues --   -0.73361  -0.68167  -0.61978  -0.58122  -0.55625
 Alpha  occ. eigenvalues --   -0.52557  -0.51045  -0.50855  -0.48219  -0.44628
 Alpha  occ. eigenvalues --   -0.42006  -0.41046  -0.40161  -0.39037  -0.37491
 Alpha  occ. eigenvalues --   -0.29552
 Alpha virt. eigenvalues --    0.01077   0.02153   0.02860   0.03712   0.05219
 Alpha virt. eigenvalues --    0.06022   0.06224   0.07018   0.07476   0.08911
 Alpha virt. eigenvalues --    0.09863   0.10734   0.10752   0.13493   0.15019

  Beta  occ. eigenvalues --  -19.68393 -19.67400 -10.55154 -10.54856 -10.54319
  Beta  occ. eigenvalues --  -10.53141  -1.25118  -0.96740  -0.90963  -0.82710
  Beta  occ. eigenvalues --   -0.72275  -0.67460  -0.60741  -0.55480  -0.54635
  Beta  occ. eigenvalues --   -0.51509  -0.50549  -0.49475  -0.47331  -0.44114
  Beta  occ. eigenvalues --   -0.41455  -0.40607  -0.39900  -0.36499  -0.35669
  Beta virt. eigenvalues --   -0.07996   0.01079   0.02123   0.02880   0.03723
  Beta virt. eigenvalues --    0.05224   0.06073   0.06345   0.06959   0.07579
  Beta virt. eigenvalues --    0.08952   0.09936   0.10695   0.10856   0.13633

 Mulliken atomic charges:
              1
     1  O   -0.271175
     2  O   -0.218680
     3  C   -0.613012
     4  C   -0.565864
     5  C   -0.149259
     6  C   -0.259033
     7  H    0.253504
     8  H    0.349469
     9  H    0.199754
    10  H    0.172445
    11  H    0.136907
    12  H    0.138205
    13  H    0.138360
    14  H    0.157924
    15  H    0.173754
    16  H    0.178092
    17  H    0.178610
 Sum of Mulliken atomic charges =   0.00000

 Dipole moment (field-independent basis, Debye):
    X=             -2.7853    Y=              0.3269    Z=             -0.6952  Tot=              2.8894
 Quadrupole moment (field-independent basis, Debye-Ang):
   XX=            -47.8458   YY=            -35.4396   ZZ=            -40.4016
   XY=              1.2113   XZ=             -0.9369   YZ=              0.8470

 Normal termination of Gaussian 09 at Wed May  9 00:05:26 2018.
