 Gaussian 09, Revision B.01,
 Gaussian 09:  EM64L-G09RevB.01 12-Aug-2010

 ---------------------------------------------------------------
 #p m062x/6-311+g(2df,2p) opt=(verytight,gdiis) freq IOP(2/16=3)
 ---------------------------------------------------------------

 ------------------------------
 Gaussian input prepared by ASE
 ------------------------------
 Symbolic Z-matrix:
 Charge =  0 Multiplicity = 1

 SCF Done:  E(RM062X) =  -151.533645131     A.U. after   13 cycles
 SCF Done:  E(RM062X) =  -151.543139129     A.U. after   15 cycles
 SCF Done:  E(RM062X) =  -151.544633319     A.U. after   15 cycles
 SCF Done:  E(RM062X) =  -151.544777535     A.U. after   12 cycles
 SCF Done:  E(RM062X) =  -151.544803584     A.U. after   14 cycles
 SCF Done:  E(RM062X) =  -151.544811450     A.U. after    9 cycles
 SCF Done:  E(RM062X) =  -151.544813094     A.U. after   13 cycles
 SCF Done:  E(RM062X) =  -151.544813125     A.U. after    7 cycles
 SCF Done:  E(RM062X) =  -151.544813120     A.U. after   13 cycles
 Optimization completed.
    -- Stationary point found.
 Normal termination of Gaussian 09 at Tue May  8 21:47:41 2018.

 ----------------------------------------------------------------------
 #P Geom=AllCheck Guess=TCheck SCRF=Check Test GenChk RM062X/6-311+G(2d
 f,2p) Freq
 ----------------------------------------------------------------------

 Gaussian input prepared by ASE
 ------------------------------
 Redundant internal coordinates taken from checkpoint file:
 /home/harms.n/Code/AutoTST/Gau-4361.chk
 Charge =  0 Multiplicity = 1

                         Standard orientation:
 ---------------------------------------------------------------------
 Center     Atomic      Atomic             Coordinates (Angstroms)
 Number     Number       Type             X           Y           Z
 ---------------------------------------------------------------------
      1          8           0       -0.700645   -0.115072   -0.057376
      2          8           0        0.700645    0.115072   -0.057376
      3          1           0       -1.019382    0.632732    0.459007
      4          1           0        1.019382   -0.632732    0.459007
 ---------------------------------------------------------------------

 SCF Done:  E(RM062X) =  -151.544813120     A.U. after    1 cycles

 The electronic state is 1-A.
 Alpha  occ. eigenvalues --  -19.68805 -19.68787  -1.26797  -1.01802  -0.62400
 Alpha  occ. eigenvalues --   -0.59309  -0.51886  -0.41023  -0.37252
 Alpha virt. eigenvalues --    0.05149   0.06236   0.12265   0.16082   0.18181
 Alpha virt. eigenvalues --    0.18810   0.20709   0.20872   0.21764   0.28434
 Alpha virt. eigenvalues --    0.33603   0.50180   0.51459   0.68620   0.69266

 Mulliken atomic charges:
              1
     1  O   -0.266325
     2  O   -0.266325
     3  H    0.266325
     4  H    0.266325
 Sum of Mulliken atomic charges =   0.00000

 Dipole moment (field-independent basis, Debye):
    X=              0.0000    Y=              0.0000    Z=              1.8205  Tot=              1.8205
 Quadrupole moment (field-independent basis, Debye-Ang):
   XX=            -10.4858   YY=            -10.7455   ZZ=            -11.8818
   XY=             -3.1699   XZ=              0.0000   YZ=              0.0000

  Exact polarizability:  16.978  -0.895  11.533   0.000   0.000  10.803
 Approx polarizability:  18.321  -0.678  12.728   0.000   0.000  11.526

                     1                      2                      3
                     A                      A                      A
 Frequencies --   385.0224              1048.0012              1369.6351
 Red. masses --     1.0831                14.5991                 1.1078
 Frc consts  --     0.0946                 9.4471                 1.2244
 IR Inten    --   189.4266                 0.8651                99.9460

                     4                      5                      6
                     A                      A                      A
 Frequencies --  1485.2258              3855.9343              3856.6795
 Red. masses --     1.0923                 1.0673                 1.0695
 Frc consts  --     1.4196                 9.3495                 9.3722
 IR Inten    --     0.3113                78.8273                22.2232

 - Thermochemistry -
 -------------------
 Temperature   298.150 Kelvin.  Pressure   1.00000 Atm.
 Atom     1 has atomic number  8 and mass  15.99491

 Molecular mass:    34.00548 amu.
 Principal axes and moments of inertia in atomic units:
                           1         2         3
     Eigenvalues --     5.84944  65.71559  67.95385
           X            0.99707  -0.07652   0.00000
           Y            0.07652   0.99707   0.00000
           Z            0.00000   0.00000   1.00000
 This molecule is an asymmetric top.
 Rotational symmetry number  1.
 Rotational temperatures (Kelvin)     14.80719     1.31801     1.27460
 Rotational constants (GHZ):         308.53210    27.46291    26.55834
 Zero-point vibrational energy      71778.9 (Joules/Mol)
                                   17.15557 (Kcal/Mol)
 Warning -- explicit consideration of   1 degrees of freedom as
           vibrations may cause significant error
 Vibrational temperatures:    553.96  1507.84  1970.60  2136.91  5547.82
          (Kelvin)           5548.89

 Zero-point correction=                           0.027339 (Hartree/Particle)
 Thermal correction to Energy=                    0.030540
 Thermal correction to Enthalpy=                  0.031484
 Thermal correction to Gibbs Free Energy=         0.005095
 Sum of electronic and zero-point Energies=           -151.517474
 Sum of electronic and thermal Energies=              -151.514273
 Sum of electronic and thermal Enthalpies=            -151.513329
 Sum of electronic and thermal Free Energies=         -151.539718

                     E (Thermal)             CV                S
                      KCal/Mol        Cal/Mol-Kelvin    Cal/Mol-Kelvin
 Total                   19.164              7.988             55.541
 Electronic               0.000              0.000              0.000
 Translational            0.889              2.981             36.503
 Rotational               0.889              2.981             17.908
 Vibrational             17.387              2.026              1.129
 Vibration     1          0.754              1.502              1.019

 Optimization completed.
    -- Stationary point found.
 Normal termination of Gaussian 09 at Tue May  8 21:48:28 2018.
