 Gaussian 09, Revision B.01,
 Gaussian 09:  EM64L-G09RevB.01 12-Aug-2010

 --------------------------------------------------------------
 # m062x/6-311+g(2df,2p) opt=(verytight,gdiis) freq IOP(2/16=3)
 --------------------------------------------------------------

 -----------------------------------
 InChI=1S/C5H10/c1-4-5(2)3/h4H,1-3H3
 -----------------------------------
 Symbolic Z-matrix:
 Charge =  0 Multiplicity = 1

 SCF Done:  E(RM062X) =  -196.492648296     A.U. after   11 cycles
 SCF Done:  E(RM062X) =  -196.496192699     A.U. after   10 cycles
 SCF Done:  E(RM062X) =  -196.496242530     A.U. after    9 cycles
 SCF Done:  E(RM062X) =  -196.496245693     A.U. after    8 cycles
 SCF Done:  E(RM062X) =  -196.496245768     A.U. after    6 cycles
 SCF Done:  E(RM062X) =  -196.496245757     A.U. after    4 cycles
 SCF Done:  E(RM062X) =  -196.496245758     A.U. after    4 cycles
 SCF Done:  E(RM062X) =  -196.496245758     A.U. after    3 cycles
 SCF Done:  E(RM062X) =  -196.496245759     A.U. after    4 cycles
 SCF Done:  E(RM062X) =  -196.496245760     A.U. after    4 cycles
 SCF Done:  E(RM062X) =  -196.498346337     A.U. after    4 cycles
 SCF Done:  E(RM062X) =  -196.498346337     A.U. after    3 cycles
 SCF Done:  E(RM062X) =  -196.498346336     A.U. after    3 cycles
 SCF Done:  E(RM062X) =  -196.498346335     A.U. after    3 cycles
 SCF Done:  E(RM062X) =  -196.498346334     A.U. after    3 cycles
 SCF Done:  E(RM062X) =  -196.498346334     A.U. after   13 cycles
 SCF Done:  E(RM062X) =  -196.498346334     A.U. after   13 cycles
 SCF Done:  E(RM062X) =  -196.498346334     A.U. after    2 cycles
 SCF Done:  E(RM062X) =  -196.498346334     A.U. after   13 cycles
 Optimization completed.
    -- Stationary point found.
 Normal termination of Gaussian 09 at Wed Aug 16 14:12:56 2017.

 ----------------------------------------------------------------------
 #N Geom=AllCheck Guess=TCheck SCRF=Check Test GenChk RM062X/6-311+G(2d
 f,2p) Freq
 ----------------------------------------------------------------------

 InChI=1S/C5H10/c1-4-5(2)3/h4H,1-3H3
 -----------------------------------
 Redundant internal coordinates taken from checkpoint file:
 /gss_gpfs_scratch/harms.n/comparerTST/Gau-28038.chk
 Charge =  0 Multiplicity = 1

                         Standard orientation:
 ---------------------------------------------------------------------
 Center     Atomic      Atomic             Coordinates (Angstroms)
 Number     Number       Type             X           Y           Z
 ---------------------------------------------------------------------
      1          6           0       -0.622337    1.447652    0.000000
      2          6           0       -1.735116   -0.813539    0.000000
      3          6           0        2.102486   -0.074536    0.000000
      4          6           0       -0.443135   -0.044034    0.000000
      5          6           0        0.729690   -0.673847    0.000000
      6          1           0        2.665099   -0.403154    0.876043
      7          1           0        2.091487    1.012083   -0.000002
      8          1           0        2.665100   -0.403157   -0.876041
      9          1           0       -1.197822    1.756343   -0.876029
     10          1           0       -1.197824    1.756342    0.876028
     11          1           0        0.314752    1.996234    0.000001
     12          1           0       -2.335461   -0.558220   -0.876695
     13          1           0       -1.564742   -1.888399    0.000000
     14          1           0       -2.335461   -0.558221    0.876695
     15          1           0        0.705338   -1.760031    0.000000
 ---------------------------------------------------------------------

 SCF Done:  E(RM062X) =  -196.498346334     A.U. after    1 cycles

 The electronic state is 1-A.
 Alpha  occ. eigenvalues --  -10.53623 -10.52450 -10.52383 -10.52336 -10.52278
 Alpha  occ. eigenvalues --   -0.91297  -0.82775  -0.78181  -0.72286  -0.58619
 Alpha  occ. eigenvalues --   -0.53201  -0.50244  -0.50124  -0.46884  -0.44625
 Alpha  occ. eigenvalues --   -0.44454  -0.43042  -0.41508  -0.38382  -0.28833
 Alpha virt. eigenvalues --    0.01528   0.03053   0.03465   0.03971   0.05196
 Alpha virt. eigenvalues --    0.05871   0.06094   0.07315   0.07996   0.08607
 Alpha virt. eigenvalues --    0.08701   0.09872   0.11677   0.12594   0.13529

 Mulliken atomic charges:
              1
     1  C   -0.692004
     2  C   -0.554581
     3  C   -0.591029
     4  C    0.678081
     5  C   -0.247797
     6  H    0.133694
     7  H    0.132705
     8  H    0.133694
     9  H    0.147103
    10  H    0.147103
    11  H    0.145239
    12  H    0.140557
    13  H    0.138721
    14  H    0.140557
    15  H    0.147957
 Sum of Mulliken atomic charges =   0.00000

 Dipole moment (field-independent basis, Debye):
    X=             -0.0715    Y=              0.2035    Z=              0.0000  Tot=              0.2157
 Quadrupole moment (field-independent basis, Debye-Ang):
   XX=            -32.3463   YY=            -32.7420   ZZ=            -34.7237
   XY=             -0.3009   XZ=              0.0000   YZ=              0.0000

  Exact polarizability:  78.251  -5.039  61.389   0.000   0.000  48.240
 Approx polarizability:  85.404  -8.542  71.189   0.000   0.000  61.586

                     1                      2                      3
                     A                      A                      A
 Frequencies --   123.9909               156.5964               209.7126
 Red. masses --     1.0396                 1.0380                 1.3457
 Frc consts  --     0.0094                 0.0150                 0.0349
 IR Inten    --     0.2316                 0.5302                 2.0483

                     4                      5                      6
                     A                      A                      A
 Frequencies --   283.8600               307.7727               394.9904
 Red. masses --     1.5352                 2.6524                 2.2417
 Frc consts  --     0.0729                 0.1480                 0.2061
 IR Inten    --     1.1706                 0.2400                 0.3205

                     7                      8                      9
                     A                      A                      A
 Frequencies --   464.7719               527.4819               784.2220
 Red. masses --     2.1970                 2.7543                 2.7799
 Frc consts  --     0.2796                 0.4515                 1.0073
 IR Inten    --     4.0793                 1.8797                 1.4222

                    10                     11                     12
                     A                      A                      A
 Frequencies --   845.2135               971.2152               981.8210
 Red. masses --     1.1241                 1.4995                 1.4926
 Frc consts  --     0.4731                 0.8334                 0.8477
 IR Inten    --    12.9976                 2.0534                 2.7846

                    13                     14                     15
                     A                      A                      A
 Frequencies --  1025.0781              1070.1725              1077.3156
 Red. masses --     1.2428                 1.5130                 1.6630
 Frc consts  --     0.7694                 1.0209                 1.1372
 IR Inten    --     2.6653                 2.6336                 4.3127

                    16                     17                     18
                     A                      A                      A
 Frequencies --  1114.1703              1144.3587              1248.9743
 Red. masses --     1.6706                 2.0720                 2.3532
 Frc consts  --     1.2219                 1.5987                 2.1628
 IR Inten    --     0.0053                 9.9086                 4.2391

                    19                     20                     21
                     A                      A                      A
 Frequencies --  1374.3090              1418.6194              1425.7344
 Red. masses --     1.2547                 1.2800                 1.5394
 Frc consts  --     1.3963                 1.5177                 1.8436
 IR Inten    --     2.0636                 4.6412                 6.2088

                    22                     23                     24
                     A                      A                      A
 Frequencies --  1431.2407              1479.8616              1489.8695
 Red. masses --     1.2543                 1.0434                 1.0451
 Frc consts  --     1.5138                 1.3463                 1.3668
 IR Inten    --     2.7047                 0.2279                 2.1092

                    25                     26                     27
                     A                      A                      A
 Frequencies --  1489.9826              1500.4594              1506.2505
 Red. masses --     1.0435                 1.0414                 1.0811
 Frc consts  --     1.3649                 1.3813                 1.4452
 IR Inten    --     2.6996                19.6305                 2.9084

                    28                     29                     30
                     A                      A                      A
 Frequencies --  1506.4934              1768.5523              3047.3651
 Red. masses --     1.0533                 6.6571                 1.0370
 Frc consts  --     1.4085                12.2679                 5.6740
 IR Inten    --    12.9343                 2.1105                 5.1794

                    31                     32                     33
                     A                      A                      A
 Frequencies --  3048.3659              3052.9665              3096.5716
 Red. masses --     1.0379                 1.0399                 1.1000
 Frc consts  --     5.6825                 5.7107                 6.2144
 IR Inten    --    54.0455                17.6310                12.9194

                    34                     35                     36
                     A                      A                      A
 Frequencies --  3099.4126              3102.1856              3128.1868
 Red. masses --     1.0997                 1.0997                 1.0913
 Frc consts  --     6.2242                 6.2356                 6.2920
 IR Inten    --     7.6131                20.7448                 4.1647

                    37                     38                     39
                     A                      A                      A
 Frequencies --  3136.0379              3146.0204              3164.1060
 Red. masses --     1.1014                 1.0971                 1.0954
 Frc consts  --     6.3819                 6.3975                 6.4616
 IR Inten    --    12.7960                22.8193                23.7899

 - Thermochemistry -
 -------------------
 Temperature   298.150 Kelvin.  Pressure   1.00000 Atm.
 Atom     1 has atomic number  6 and mass  12.00000

 Molecular mass:    70.07825 amu.
 Principal axes and moments of inertia in atomic units:
                           1         2         3
     Eigenvalues --   222.08928 510.28749 699.21595
           X            0.99996   0.00869   0.00000
           Y           -0.00869   0.99996   0.00000
           Z            0.00000   0.00000   1.00000
 This molecule is an asymmetric top.
 Rotational symmetry number  1.
 Rotational temperatures (Kelvin)      0.39000     0.16974     0.12387
 Rotational constants (GHZ):           8.12620     3.53671     2.58109
 Zero-point vibrational energy     359742.9 (Joules/Mol)
                                   85.98061 (Kcal/Mol)
 Warning -- explicit consideration of   8 degrees of freedom as
           vibrations may cause significant error
 Vibrational temperatures:    178.39   225.31   301.73   408.41   442.82
          (Kelvin)            568.30   668.70   758.93  1128.32  1216.07
                             1397.36  1412.62  1474.86  1539.74  1550.01
                             1603.04  1646.47  1796.99  1977.32  2041.07
                             2051.31  2059.23  2129.19  2143.59  2143.75
                             2158.82  2167.16  2167.51  2544.55  4384.47
                             4385.91  4392.53  4455.27  4459.36  4463.35
                             4500.76  4512.05  4526.42  4552.44

 Zero-point correction=                           0.137019 (Hartree/Particle)
 Thermal correction to Energy=                    0.143777
 Thermal correction to Enthalpy=                  0.144722
 Thermal correction to Gibbs Free Energy=         0.107410
 Sum of electronic and zero-point Energies=           -196.361328
 Sum of electronic and thermal Energies=              -196.354569
 Sum of electronic and thermal Enthalpies=            -196.353625
 Sum of electronic and thermal Free Energies=         -196.390937

                     E (Thermal)             CV                S
                      KCal/Mol        Cal/Mol-Kelvin    Cal/Mol-Kelvin
 Total                   90.222             23.574             78.530
 Electronic               0.000              0.000              0.000
 Translational            0.889              2.981             38.658
 Rotational               0.889              2.981             25.875
 Vibrational             88.444             17.612             13.997
 Vibration     1          0.610              1.929              3.037
 Vibration     2          0.620              1.895              2.591
 Vibration     3          0.642              1.826              2.046
 Vibration     4          0.682              1.704              1.510
 Vibration     5          0.698              1.659              1.374
 Vibration     6          0.762              1.481              0.981
 Vibration     7          0.822              1.328              0.752
 Vibration     8          0.882              1.189              0.593

 Optimization completed.
    -- Stationary point found.
 Normal termination of Gaussian 09 at Wed Aug 16 14:22:50 2017.
