 Gaussian 09, Revision B.01,
 Gaussian 09:  EM64L-G09RevB.01 12-Aug-2010

 --------------------------------------------------------------
 # m062x/6-311+g(2df,2p) opt=(verytight,gdiis) freq IOP(2/16=3)
 --------------------------------------------------------------

 ------------------------------------
 InChI=1S/C4H10/c1-3-4-2/h3-4H2,1-2H3
 ------------------------------------
 Symbolic Z-matrix:
 Charge =  0 Multiplicity = 1

 SCF Done:  E(RM062X) =  -158.410275747     A.U. after   10 cycles
 SCF Done:  E(RM062X) =  -158.413583322     A.U. after   11 cycles
 SCF Done:  E(RM062X) =  -158.413649932     A.U. after    7 cycles
 SCF Done:  E(RM062X) =  -158.413653096     A.U. after    7 cycles
 SCF Done:  E(RM062X) =  -158.413653264     A.U. after    5 cycles
 SCF Done:  E(RM062X) =  -158.413653268     A.U. after    4 cycles
 SCF Done:  E(RM062X) =  -158.413653267     A.U. after    2 cycles
 Optimization completed.
    -- Stationary point found.
 Normal termination of Gaussian 09 at Wed Sep 21 02:25:09 2016.

 ----------------------------------------------------------------------
 #N Geom=AllCheck Guess=TCheck SCRF=Check Test GenChk RM062X/6-311+G(2d
 f,2p) Freq
 ----------------------------------------------------------------------

 InChI=1S/C4H10/c1-3-4-2/h3-4H2,1-2H3
 ------------------------------------
 Redundant internal coordinates taken from checkpoint file:
 /home/r.west/Code/RMG-Py/scripts/Gau-32913.chk
 Charge =  0 Multiplicity = 1

                         Standard orientation:
 ---------------------------------------------------------------------
 Center     Atomic      Atomic             Coordinates (Angstroms)
 Number     Number       Type             X           Y           Z
 ---------------------------------------------------------------------
      1          6           0        0.560762    0.516095    0.000000
      2          6           0       -0.560762   -0.516095    0.000000
      3          6           0        1.945590   -0.119492    0.000000
      4          6           0       -1.945590    0.119492    0.000000
      5          1           0        0.451475    1.163556    0.874489
      6          1           0        0.451475    1.163555   -0.874490
      7          1           0       -0.451475   -1.163556    0.874489
      8          1           0       -0.451475   -1.163555   -0.874490
      9          1           0        2.083332   -0.749090    0.880367
     10          1           0        2.083331   -0.749091   -0.880366
     11          1           0        2.734155    0.632383   -0.000001
     12          1           0       -2.083332    0.749090    0.880366
     13          1           0       -2.083332    0.749090   -0.880366
     14          1           0       -2.734155   -0.632383    0.000000
 ---------------------------------------------------------------------

 SCF Done:  E(RM062X) =  -158.413653267     A.U. after    1 cycles

 The electronic state is 1-A.
 Alpha  occ. eigenvalues --  -10.52502 -10.52465 -10.51811 -10.51811  -0.89466
 Alpha  occ. eigenvalues --   -0.81781  -0.71617  -0.65787  -0.54123  -0.49371
 Alpha  occ. eigenvalues --   -0.48579  -0.47730  -0.43014  -0.41111  -0.39139
 Alpha  occ. eigenvalues --   -0.38119  -0.37906
 Alpha virt. eigenvalues --    0.01973   0.03044   0.03802   0.04271   0.05940
 Alpha virt. eigenvalues --    0.06910   0.07254   0.08130   0.08309   0.08800
 Alpha virt. eigenvalues --    0.10545   0.11037   0.12510   0.15472   0.16302

 Mulliken atomic charges:
              1
     1  C   -0.218742
     2  C   -0.218742
     3  C   -0.486231
     4  C   -0.486231
     5  H    0.150799
     6  H    0.150799
     7  H    0.150799
     8  H    0.150799
     9  H    0.135108
    10  H    0.135108
    11  H    0.133158
    12  H    0.135108
    13  H    0.135108
    14  H    0.133158
 Sum of Mulliken atomic charges =   0.00000

 Dipole moment (field-independent basis, Debye):
    X=              0.0000    Y=              0.0000    Z=              0.0000  Tot=              0.0000
 Quadrupole moment (field-independent basis, Debye-Ang):
   XX=            -29.3401   YY=            -28.7975   ZZ=            -28.1286
   XY=              0.3583   XZ=              0.0000   YZ=              0.0000

  Exact polarizability:  58.633  -0.453  48.246   0.000   0.000  45.429
 Approx polarizability:  57.534  -0.304  57.348   0.000   0.000  56.535

                     1                      2                      3
                     A                      A                      A
 Frequencies --    82.8482               179.1298               223.5505
 Red. masses --     1.6102                 1.1780                 1.1190
 Frc consts  --     0.0065                 0.0223                 0.0329
 IR Inten    --     0.0135                 0.0017                 0.0000

                     4                      5                      6
                     A                      A                      A
 Frequencies --   252.2483               428.8333               719.3507
 Red. masses --     2.2264                 2.6792                 1.0714
 Frc consts  --     0.0835                 0.2903                 0.3266
 IR Inten    --     0.0213                 0.0000                 3.0575

                     7                      8                      9
                     A                      A                      A
 Frequencies --   800.6100               850.0800               949.1868
 Red. masses --     1.1253                 1.9016                 1.1214
 Frc consts  --     0.4250                 0.8096                 0.5953
 IR Inten    --     0.0000                 0.0000                 0.5733

                    10                     11                     12
                     A                      A                      A
 Frequencies --   973.1746              1038.4652              1085.4867
 Red. masses --     1.2193                 3.2740                 2.1764
 Frc consts  --     0.6804                 2.0802                 1.5109
 IR Inten    --     5.8229                 0.0820                 0.0000

                    13                     14                     15
                     A                      A                      A
 Frequencies --  1173.7399              1204.5379              1283.0365
 Red. masses --     2.1247                 1.7530                 1.2533
 Frc consts  --     1.7246                 1.4985                 1.2155
 IR Inten    --     0.0000                 0.0000                 0.0777

                    16                     17                     18
                     A                      A                      A
 Frequencies --  1315.1988              1327.9227              1392.7984
 Red. masses --     1.3609                 1.0705                 1.6119
 Frc consts  --     1.3870                 1.1122                 1.8423
 IR Inten    --     1.6565                 0.0000                 0.0000

                    19                     20                     21
                     A                      A                      A
 Frequencies --  1406.4165              1409.0371              1486.3568
 Red. masses --     1.2754                 1.2643                 1.0628
 Frc consts  --     1.4863                 1.4789                 1.3835
 IR Inten    --     0.0000                 6.8956                 0.0000

                    22                     23                     24
                     A                      A                      A
 Frequencies --  1490.1172              1498.4134              1499.7349
 Red. masses --     1.0499                 1.0433                 1.0354
 Frc consts  --     1.3735                 1.3802                 1.3721
 IR Inten    --     2.0012                 0.0000                15.7563

                    25                     26                     27
                     A                      A                      A
 Frequencies --  1504.9229              1511.1685              3021.7605
 Red. masses --     1.0670                 1.0874                 1.0594
 Frc consts  --     1.4238                 1.4630                 5.6996
 IR Inten    --     0.0000                10.6465                 0.0000

                    28                     29                     30
                     A                      A                      A
 Frequencies --  3028.7895              3031.9266              3033.7640
 Red. masses --     1.0473                 1.0356                 1.0483
 Frc consts  --     5.6606                 5.6088                 5.6847
 IR Inten    --    15.8166                 0.0000                81.1971

                    31                     32                     33
                     A                      A                      A
 Frequencies --  3047.1324              3068.4071              3099.7614
 Red. masses --     1.1007                 1.1045                 1.1027
 Frc consts  --     6.0217                 6.1267                 6.2424
 IR Inten    --     0.0000                13.0671                 0.0000

                    34                     35                     36
                     A                      A                      A
 Frequencies --  3103.1295              3108.0262              3108.5716
 Red. masses --     1.1025                 1.1020                 1.1016
 Frc consts  --     6.2549                 6.2717                 6.2720
 IR Inten    --    79.9042                 0.0000                50.5616

 - Thermochemistry -
 -------------------
 Temperature   298.150 Kelvin.  Pressure   1.00000 Atm.
 Atom     1 has atomic number  6 and mass  12.00000

 Molecular mass:    58.07825 amu.
 Principal axes and moments of inertia in atomic units:
                           1         2         3
     Eigenvalues --    76.65126 492.78085 525.09877
           X            0.99998  -0.00582   0.00000
           Y            0.00582   0.99998   0.00000
           Z            0.00000   0.00000   1.00000
 This molecule is an asymmetric top.
 Rotational symmetry number  1.
 Rotational temperatures (Kelvin)      1.12997     0.17577     0.16495
 Rotational constants (GHZ):          23.54483     3.66236     3.43696
 Zero-point vibrational energy     345347.7 (Joules/Mol)
                                   82.54009 (Kcal/Mol)
 Warning -- explicit consideration of   5 degrees of freedom as
           vibrations may cause significant error
 Vibrational temperatures:    119.20   257.73   321.64   362.93   616.99
          (Kelvin)           1034.98  1151.90  1223.07  1365.67  1400.18
                             1494.12  1561.77  1688.75  1733.06  1846.00
                             1892.28  1910.58  2003.92  2023.52  2027.29
                             2138.53  2143.94  2155.88  2157.78  2165.25
                             2174.23  4347.63  4357.75  4362.26  4364.90
                             4384.14  4414.75  4459.86  4464.71  4471.75
                             4472.54

 Zero-point correction=                           0.131536 (Hartree/Particle)
 Thermal correction to Energy=                    0.137533
 Thermal correction to Enthalpy=                  0.138477
 Thermal correction to Gibbs Free Energy=         0.103041
 Sum of electronic and zero-point Energies=           -158.282117
 Sum of electronic and thermal Energies=              -158.276121
 Sum of electronic and thermal Enthalpies=            -158.275176
 Sum of electronic and thermal Free Energies=         -158.310612

                     E (Thermal)             CV                S
                      KCal/Mol        Cal/Mol-Kelvin    Cal/Mol-Kelvin
 Total                   86.303             19.875             74.580
 Electronic               0.000              0.000              0.000
 Translational            0.889              2.981             38.098
 Rotational               0.889              2.981             24.498
 Vibrational             84.526             13.913             11.984
 Vibration     1          0.600              1.961              3.822
 Vibration     2          0.629              1.868              2.337
 Vibration     3          0.649              1.805              1.930
 Vibration     4          0.664              1.759              1.715
 Vibration     5          0.790              1.407              0.862

 Optimization completed.
    -- Stationary point found.
 Normal termination of Gaussian 09 at Wed Sep 21 02:30:48 2016.
