 Gaussian 09, Revision B.01,
 Gaussian 09:  EM64L-G09RevB.01 12-Aug-2010

 --------------------------------------------------------------
 # m062x/6-311+g(2df,2p) opt=(verytight,gdiis) freq IOP(2/16=3)
 --------------------------------------------------------------

 --------------------------------------
 InChI=1S/C4H9/c1-3-4-2/h1,3-4H2,2H3/u1
 --------------------------------------
 Symbolic Z-matrix:
 Charge =  0 Multiplicity = 2

 SCF Done:  E(UM062X) =  -157.729744745     A.U. after   13 cycles
 SCF Done:  E(UM062X) =  -157.738616665     A.U. after   12 cycles
 SCF Done:  E(UM062X) =  -157.742541853     A.U. after   11 cycles
 SCF Done:  E(UM062X) =  -157.743270509     A.U. after   11 cycles
 SCF Done:  E(UM062X) =  -157.743435440     A.U. after   10 cycles
 SCF Done:  E(UM062X) =  -157.743512341     A.U. after   10 cycles
 SCF Done:  E(UM062X) =  -157.743526922     A.U. after   10 cycles
 SCF Done:  E(UM062X) =  -157.743527786     A.U. after    9 cycles
 SCF Done:  E(UM062X) =  -157.743528143     A.U. after    8 cycles
 SCF Done:  E(UM062X) =  -157.743528180     A.U. after    7 cycles
 SCF Done:  E(UM062X) =  -157.743528081     A.U. after    7 cycles
 SCF Done:  E(UM062X) =  -157.743528064     A.U. after    6 cycles
 SCF Done:  E(UM062X) =  -157.743528052     A.U. after    4 cycles
 SCF Done:  E(UM062X) =  -157.743528049     A.U. after    3 cycles
 SCF Done:  E(UM062X) =  -157.743528050     A.U. after    2 cycles
 SCF Done:  E(UM062X) =  -157.743528050     A.U. after    2 cycles
 Optimization completed.
    -- Stationary point found.
 Normal termination of Gaussian 09 at Tue Mar  7 16:13:53 2017.

 ----------------------------------------------------------------------
 #N Geom=AllCheck Guess=TCheck SCRF=Check Test GenChk UM062X/6-311+G(2d
 f,2p) Freq
 ----------------------------------------------------------------------

 InChI=1S/C4H9/c1-3-4-2/h1,3-4H2,2H3/u1
 --------------------------------------
 Redundant internal coordinates taken from checkpoint file:
 /gss_gpfs_scratch/westgroup/rwest-autotst-1/Gau-40633.chk
 Charge =  0 Multiplicity = 2

                         Standard orientation:
 ---------------------------------------------------------------------
 Center     Atomic      Atomic             Coordinates (Angstroms)
 Number     Number       Type             X           Y           Z
 ---------------------------------------------------------------------
      1          6           0        0.502405    0.523143   -0.067190
      2          6           0       -0.635276   -0.492002    0.033628
      3          6           0        1.875479   -0.130425    0.019086
      4          6           0       -1.982654    0.131124   -0.011957
      5          1           0        0.406810    1.070421   -1.007542
      6          1           0        0.390322    1.260556    0.731744
      7          1           0       -0.510523   -1.058668    0.969137
      8          1           0       -0.536487   -1.233474   -0.765101
      9          1           0        1.998295   -0.652652    0.969089
     10          1           0        2.675055    0.604641   -0.064748
     11          1           0        2.008344   -0.861859   -0.779387
     12          1           0       -2.136596    1.119883    0.396939
     13          1           0       -2.854940   -0.439892   -0.291533
 ---------------------------------------------------------------------

 SCF Done:  E(UM062X) =  -157.743528050     A.U. after    1 cycles

 The electronic state is 2-A.
 Alpha  occ. eigenvalues --  -10.53685 -10.53313 -10.52918 -10.52091  -0.90051
 Alpha  occ. eigenvalues --   -0.81875  -0.71168  -0.66140  -0.54235  -0.50696
 Alpha  occ. eigenvalues --   -0.49873  -0.46452  -0.43958  -0.40595  -0.39569
 Alpha  occ. eigenvalues --   -0.38853  -0.25644
 Alpha virt. eigenvalues --    0.02151   0.03292   0.03771   0.04731   0.05990
 Alpha virt. eigenvalues --    0.06592   0.08077   0.08434   0.08646   0.09671
 Alpha virt. eigenvalues --    0.10464   0.12203   0.13636   0.15673   0.17460

  Beta  occ. eigenvalues --  -10.53378 -10.52998 -10.52895 -10.52090  -0.89398
  Beta  occ. eigenvalues --   -0.80464  -0.69539  -0.64907  -0.53673  -0.49844
  Beta  occ. eigenvalues --   -0.49414  -0.45449  -0.43395  -0.40139  -0.39184
  Beta  occ. eigenvalues --   -0.38665
  Beta virt. eigenvalues --   -0.02521   0.01816   0.02982   0.03698   0.04647
  Beta virt. eigenvalues --    0.06004   0.06708   0.07886   0.08162   0.08675
  Beta virt. eigenvalues --    0.08982   0.10593   0.12170   0.12885   0.15473

 Mulliken atomic charges:
              1
     1  C   -0.245563
     2  C   -0.191415
     3  C   -0.493439
     4  C   -0.421685
     5  H    0.157669
     6  H    0.152631
     7  H    0.145472
     8  H    0.149008
     9  H    0.135382
    10  H    0.134929
    11  H    0.134965
    12  H    0.168547
    13  H    0.173498
 Sum of Mulliken atomic charges =   0.00000

 Dipole moment (field-independent basis, Debye):
    X=              0.2537    Y=             -0.1261    Z=              0.1197  Tot=              0.3076
 Quadrupole moment (field-independent basis, Debye-Ang):
   XX=            -28.6495   YY=            -27.7192   ZZ=            -28.3530
   XY=              0.5176   XZ=             -0.1155   YZ=              0.6395

  Exact polarizability:  58.553  -1.123  47.348   0.289  -0.292  44.463
 Approx polarizability:  57.025  -0.955  55.740   0.422  -0.089  54.169

                     1                      2                      3
                     A                      A                      A
 Frequencies --   124.1021               242.2443               245.3468
 Red. masses --     2.0683                 1.0701                 1.0697
 Frc consts  --     0.0188                 0.0370                 0.0379
 IR Inten    --     0.1540                 0.0206                 0.1004

                     4                      5                      6
                     A                      A                      A
 Frequencies --   266.7136               436.2461               507.7999
 Red. masses --     2.2416                 2.5619                 1.2898
 Frc consts  --     0.0940                 0.2873                 0.1960
 IR Inten    --     0.1992                 2.4297                49.7631

                     7                      8                      9
                     A                      A                      A
 Frequencies --   727.2375               833.5532               872.3568
 Red. masses --     1.1187                 1.3457                 1.6062
 Frc consts  --     0.3486                 0.5509                 0.7202
 IR Inten    --     1.4449                 0.8200                 1.6590

                    10                     11                     12
                     A                      A                      A
 Frequencies --   972.3651              1054.1053              1075.7372
 Red. masses --     1.1902                 2.7051                 1.4985
 Frc consts  --     0.6630                 1.7709                 1.0217
 IR Inten    --     2.3831                 0.4005                 0.2175

                    13                     14                     15
                     A                      A                      A
 Frequencies --  1109.5338              1178.3273              1249.9468
 Red. masses --     2.1897                 2.0329                 1.3684
 Frc consts  --     1.5882                 1.6630                 1.2597
 IR Inten    --     0.3285                 0.8970                 0.0751

                    16                     17                     18
                     A                      A                      A
 Frequencies --  1316.5866              1326.5215              1398.9323
 Red. masses --     1.2560                 1.1742                 1.5783
 Frc consts  --     1.2828                 1.2174                 1.8198
 IR Inten    --     1.1509                 0.6857                 0.4140

                    19                     20                     21
                     A                      A                      A
 Frequencies --  1418.0780              1471.5539              1477.5931
 Red. masses --     1.2729                 1.0978                 1.1742
 Frc consts  --     1.5082                 1.4006                 1.5104
 IR Inten    --     3.7188                 2.9575                 0.1094

                    22                     23                     24
                     A                      A                      A
 Frequencies --  1498.3871              1507.0232              1514.5214
 Red. masses --     1.0548                 1.0436                 1.0765
 Frc consts  --     1.3952                 1.3964                 1.4549
 IR Inten    --     0.9334                 7.8957                 6.6313

                    25                     26                     27
                     A                      A                      A
 Frequencies --  2962.5775              3044.3468              3048.4290
 Red. masses --     1.0716                 1.0644                 1.0501
 Frc consts  --     5.5415                 5.8124                 5.7495
 IR Inten    --    20.3802                 6.0829                11.6787

                    28                     29                     30
                     A                      A                      A
 Frequencies --  3051.9784              3082.3351              3118.1853
 Red. masses --     1.0660                 1.1034                 1.1029
 Frc consts  --     5.8504                 6.1766                 6.3179
 IR Inten    --    37.6241                13.3528                37.7044

                    31                     32                     33
                     A                      A                      A
 Frequencies --  3125.7883              3178.9982              3281.6673
 Red. masses --     1.1017                 1.0517                 1.1182
 Frc consts  --     6.3424                 6.2622                 7.0949
 IR Inten    --    24.1954                12.6666                 9.0180

 - Thermochemistry -
 -------------------
 Temperature   298.150 Kelvin.  Pressure   1.00000 Atm.
 Atom     1 has atomic number  6 and mass  12.00000

 Molecular mass:    57.07043 amu.
 Principal axes and moments of inertia in atomic units:
                           1         2         3
     Eigenvalues --    71.42689 468.43965 504.37675
           X            0.99999  -0.00383  -0.00030
           Y            0.00383   0.99945   0.03295
           Z            0.00017  -0.03295   0.99946
 This molecule is an asymmetric top.
 Rotational symmetry number  1.
 Rotational temperatures (Kelvin)      1.21262     0.18490     0.17172
 Rotational constants (GHZ):          25.26697     3.85267     3.57816
 Zero-point vibrational energy     309349.0 (Joules/Mol)
                                   73.93619 (Kcal/Mol)
 Warning -- explicit consideration of   6 degrees of freedom as
           vibrations may cause significant error
 Vibrational temperatures:    178.56   348.54   353.00   383.74   627.66
          (Kelvin)            730.61  1046.33  1199.30  1255.13  1399.01
                             1516.62  1547.74  1596.37  1695.35  1798.39
                             1894.27  1908.57  2012.75  2040.30  2117.24
                             2125.92  2155.84  2168.27  2179.06  4262.48
                             4380.13  4386.00  4391.11  4434.79  4486.37
                             4497.31  4573.86  4721.58

 Zero-point correction=                           0.117825 (Hartree/Particle)
 Thermal correction to Energy=                    0.123741
 Thermal correction to Enthalpy=                  0.124685
 Thermal correction to Gibbs Free Energy=         0.089246
 Sum of electronic and zero-point Energies=           -157.625703
 Sum of electronic and thermal Energies=              -157.619787
 Sum of electronic and thermal Enthalpies=            -157.618843
 Sum of electronic and thermal Free Energies=         -157.654282

                     E (Thermal)             CV                S
                      KCal/Mol        Cal/Mol-Kelvin    Cal/Mol-Kelvin
 Total                   77.649             20.272             74.587
 Electronic               0.000              0.000              1.377
 Translational            0.889              2.981             38.046
 Rotational               0.889              2.981             24.338
 Vibrational             75.871             14.310             10.826
 Vibration     1          0.610              1.929              3.035
 Vibration     2          0.658              1.776              1.786
 Vibration     3          0.660              1.770              1.764
 Vibration     4          0.672              1.734              1.617
 Vibration     5          0.797              1.391              0.838
 Vibration     6          0.863              1.233              0.639

 Normal termination of Gaussian 09 at Tue Mar  7 16:23:35 2017.
