 Gaussian 09, Revision B.01,
 Gaussian 09:  EM64L-G09RevB.01 12-Aug-2010

 ---------------------------------------------
 #p hf/6-31g* opt=(ts,calcfc,noeigentest) freq
 ---------------------------------------------

 ------------------------------
 Gaussian input prepared by ASE
 ------------------------------
 Symbolic Z-matrix:
 Charge =  0 Multiplicity = 2

 SCF Done:  E(UHF) =  -345.257561791     A.U. after   23 cycles
 SCF Done:  E(UHF) =  -345.257729992     A.U. after   24 cycles
 SCF Done:  E(UHF) =  -345.257732727     A.U. after   16 cycles
 SCF Done:  E(UHF) =  -345.257732835     A.U. after   14 cycles
 SCF Done:  E(UHF) =  -345.257732874     A.U. after   11 cycles
 SCF Done:  E(UHF) =  -345.257732899     A.U. after   12 cycles
 Optimization completed on the basis of negligible forces.
    -- Stationary point found.
 Normal termination of Gaussian 09 at Thu Apr 26 16:22:23 2018.

 -----------------------------------------------------------------
 #P Geom=AllCheck Guess=TCheck SCRF=Check GenChk UHF/6-31G(d) Freq
 -----------------------------------------------------------------

 Gaussian input prepared by ASE
 ------------------------------
 Redundant internal coordinates taken from checkpoint file:
 /home/harms.n/Code/AutoTST/ipython_notebooks/Gau-37351.chk
 Charge =  0 Multiplicity = 2

                         Standard orientation:
 ---------------------------------------------------------------------
 Center     Atomic      Atomic             Coordinates (Angstroms)
 Number     Number       Type             X           Y           Z
 ---------------------------------------------------------------------
      1          8           0        2.340275   -0.028428   -0.850948
      2          8           0        3.384529    0.383039   -0.067552
      3          6           0       -0.689994   -0.898032    0.331458
      4          6           0       -1.664487   -0.000860    0.028653
      5          6           0        0.611524   -0.618113    0.923621
      6          6           0       -2.953966   -0.452887   -0.608739
      7          6           0       -1.566347    1.481565    0.282562
      8          1           0        3.947355   -0.381171   -0.024796
      9          1           0       -0.867876   -1.927274    0.065730
     10          1           0        1.460499   -0.349371   -0.037213
     11          1           0        1.086932   -1.466978    1.394520
     12          1           0        0.709066    0.278742    1.515079
     13          1           0       -3.097603    0.028623   -1.573459
     14          1           0       -2.976892   -1.525446   -0.761499
     15          1           0       -3.807260   -0.181662    0.009026
     16          1           0       -0.617224    1.781642    0.703905
     17          1           0       -1.700822    2.029926   -0.646536
     18          1           0       -2.354983    1.806047    0.957922
 ---------------------------------------------------------------------

 SCF Done:  E(UHF) =  -345.257732899     A.U. after    1 cycles

 The electronic state is 2-A.
 Alpha  occ. eigenvalues --  -20.64451 -20.62539 -11.24584 -11.24404 -11.22159
 Alpha  occ. eigenvalues --  -11.21961 -11.21862  -1.50765  -1.18205  -1.10971
 Alpha  occ. eigenvalues --   -1.01179  -0.94545  -0.87994  -0.73863  -0.72166
 Alpha  occ. eigenvalues --   -0.70504  -0.64408  -0.62207  -0.61091  -0.60536
 Alpha  occ. eigenvalues --   -0.55444  -0.54371  -0.53181  -0.51632  -0.51139
 Alpha  occ. eigenvalues --   -0.48455  -0.48099  -0.43706  -0.33260
 Alpha virt. eigenvalues --    0.19343   0.22620   0.23454   0.26743   0.27103
 Alpha virt. eigenvalues --    0.29785   0.31772   0.32271   0.33530   0.34058
 Alpha virt. eigenvalues --    0.36006   0.38455   0.39416   0.42886   0.45421

  Beta  occ. eigenvalues --  -20.62467 -20.61580 -11.23438 -11.23139 -11.22819
  Beta  occ. eigenvalues --  -11.22145 -11.22039  -1.47049  -1.12578  -1.09440
  Beta  occ. eigenvalues --   -0.99433  -0.94593  -0.86064  -0.71556  -0.71111
  Beta  occ. eigenvalues --   -0.63969  -0.63171  -0.61015  -0.58783  -0.58299
  Beta  occ. eigenvalues --   -0.54835  -0.53835  -0.53000  -0.50970  -0.48116
  Beta  occ. eigenvalues --   -0.46580  -0.45741  -0.34606
  Beta virt. eigenvalues --    0.07320   0.20862   0.22809   0.23501   0.26935
  Beta virt. eigenvalues --    0.27250   0.29954   0.32215   0.33432   0.34193
  Beta virt. eigenvalues --    0.35998   0.36320   0.38918   0.40460   0.43551

 Mulliken atomic charges:
              1
     1  O   -0.316076
     2  O   -0.445421
     3  C   -0.188133
     4  C    0.075187
     5  C   -0.511928
     6  C   -0.510556
     7  C   -0.516165
     8  H    0.455724
     9  H    0.181018
    10  H    0.334079
    11  H    0.191308
    12  H    0.207989
    13  H    0.171818
    14  H    0.173198
    15  H    0.168643
    16  H    0.182744
    17  H    0.176795
    18  H    0.169776
 Sum of Mulliken atomic charges =   0.00000

 Dipole moment (field-independent basis, Debye):
    X=             -0.8885    Y=             -1.5551    Z=              1.2024  Tot=              2.1572
 Quadrupole moment (field-independent basis, Debye-Ang):
   XX=            -39.5394   YY=            -43.1347   ZZ=            -46.0995
   XY=             -6.6653   XZ=              3.6521   YZ=              0.1281

  Exact polarizability: 124.784   0.251  59.067  -8.220  -3.285  53.786
 Approx polarizability:  67.246  -1.791  50.982   0.934  -1.563  46.292

 ******    1 imaginary frequencies (negative Signs) ******

                     1                      2                      3
                     A                      A                      A
 Frequencies -- -3419.3760                18.5174                54.3712
 Red. masses --     1.0835                 4.7727                 3.9394
 Frc consts  --     7.4640                 0.0010                 0.0069
 IR Inten    -- 15035.9720                 5.6088                 6.7438
 Raman Activ --   835.3793                 2.2277                 5.3207

                     4                      5                      6
                     A                      A                      A
 Frequencies --    62.9525                99.7700               167.3866
 Red. masses --     3.1303                 1.1041                 1.3147
 Frc consts  --     0.0073                 0.0065                 0.0217
 IR Inten    --     0.8946                 0.3077                 0.2039
 Raman Activ --     2.8956                 0.5385                 0.7713

                     7                      8                      9
                     A                      A                      A
 Frequencies --   195.0194               295.7767               315.0397
 Red. masses --     2.7422                 3.0684                 2.4579
 Frc consts  --     0.0614                 0.1582                 0.1437
 IR Inten    --     0.3182                 1.0105                 8.3455
 Raman Activ --     5.2819                 5.5387                 2.5714

                    10                     11                     12
                     A                      A                      A
 Frequencies --   377.3514               410.6364               459.2853
 Red. masses --     1.1591                 1.9676                 2.2861
 Frc consts  --     0.0972                 0.1955                 0.2841
 IR Inten    --    73.1664                16.5405                24.0664
 Raman Activ --     2.4219                 5.1159                 7.4859

                    13                     14                     15
                     A                      A                      A
 Frequencies --   533.9498               586.9379               591.7464
 Red. masses --     1.4728                 1.9230                 4.8400
 Frc consts  --     0.2474                 0.3903                 0.9985
 IR Inten    --    26.4422                13.3402                 5.9873
 Raman Activ --     8.5528                14.4911                23.6695

                    16                     17                     18
                     A                      A                      A
 Frequencies --   807.2596               926.0924              1050.3887
 Red. masses --     2.9451                 1.2606                 1.4385
 Frc consts  --     1.1308                 0.6370                 0.9351
 IR Inten    --     1.6962                18.7120                 0.0585
 Raman Activ --     6.0840                 3.7613                 4.1414

                    19                     20                     21
                     A                      A                      A
 Frequencies --  1070.7875              1091.5999              1145.6102
 Red. masses --     1.5594                 1.2349                 7.9492
 Frc consts  --     1.0534                 0.8670                 6.1468
 IR Inten    --     4.3785                 1.8105                37.4416
 Raman Activ --    26.9018                 4.1473                 9.6961

                    22                     23                     24
                     A                      A                      A
 Frequencies --  1157.3736              1182.2999              1189.9185
 Red. masses --     1.6245                 1.3784                 1.5118
 Frc consts  --     1.2821                 1.1352                 1.2612
 IR Inten    --     5.5985                 1.0858                 0.2413
 Raman Activ --     1.6547                72.4388                 9.7166

                    25                     26                     27
                     A                      A                      A
 Frequencies --  1228.1593              1320.7400              1357.4072
 Red. masses --     2.5058                 1.3237                 1.6267
 Frc consts  --     2.2269                 1.3604                 1.7659
 IR Inten    --     1.4901                10.6702                 7.7166
 Raman Activ --   349.8707                10.6539                 2.3382

                    28                     29                     30
                     A                      A                      A
 Frequencies --  1490.3320              1544.7771              1566.3441
 Red. masses --     1.5589                 1.0628                 1.3622
 Frc consts  --     2.0400                 1.4943                 1.9691
 IR Inten    --     3.3379                14.8155                 2.5848
 Raman Activ --     1.4715                29.3446                14.3536

                    31                     32                     33
                     A                      A                      A
 Frequencies --  1572.3658              1574.8139              1615.0574
 Red. masses --     1.2867                 1.0956                 1.1612
 Frc consts  --     1.8743                 1.6008                 1.7845
 IR Inten    --     0.6924                42.6057                 1.7816
 Raman Activ --    12.1849                30.1140                61.7009

                    34                     35                     36
                     A                      A                      A
 Frequencies --  1619.5286              1625.0767              1635.6121
 Red. masses --     1.1005                 1.2303                 1.0646
 Frc consts  --     1.7007                 1.9144                 1.6780
 IR Inten    --     1.2695                 8.2157                11.5980
 Raman Activ --     8.9934                64.7645                13.6341

                    37                     38                     39
                     A                      A                      A
 Frequencies --  1640.1745              1685.9931              3185.5513
 Red. masses --     1.0901                 1.8481                 1.0399
 Frc consts  --     1.7278                 3.0953                 6.2172
 IR Inten    --     4.6234                 2.6962                27.0390
 Raman Activ --    18.4760               116.8212                60.3470

                    40                     41                     42
                     A                      A                      A
 Frequencies --  3194.2681              3229.4511              3236.5147
 Red. masses --     1.0426                 1.1010                 1.1003
 Frc consts  --     6.2676                 6.7652                 6.7905
 IR Inten    --    62.4181                 9.7138                56.6114
 Raman Activ --   243.4089                36.3590               176.3039

                    43                     44                     45
                     A                      A                      A
 Frequencies --  3275.5517              3279.0498              3310.1012
 Red. masses --     1.0603                 1.0979                 1.0965
 Frc consts  --     6.7024                 6.9554                 7.0783
 IR Inten    --    18.0366                25.4665                31.5010
 Raman Activ --   127.0292                70.2984                25.6734

                    46                     47                     48
                     A                      A                      A
 Frequencies --  3330.1119              3358.5603              4066.3637
 Red. masses --     1.0897                 1.1067                 1.0684
 Frc consts  --     7.1197                 7.3553                10.4090
 IR Inten    --    16.3343                26.1966                77.8289
 Raman Activ --   127.1838                47.7388               173.2151

 - Thermochemistry -
 -------------------
 Temperature   298.150 Kelvin.  Pressure   1.00000 Atm.
 Atom     1 has atomic number  8 and mass  15.99491

 Molecular mass:   103.07590 amu.
 Principal axes and moments of inertia in atomic units:
                           1         2         3
     Eigenvalues --   365.382101957.042682053.55519
           X            0.99979  -0.01263   0.01587
           Y            0.01206   0.99929   0.03571
           Z           -0.01631  -0.03552   0.99924
 This molecule is an asymmetric top.
 Rotational symmetry number  1.
 Rotational temperatures (Kelvin)      0.23705     0.04426     0.04218
 Rotational constants (GHZ):           4.93933     0.92218     0.87884
    1 imaginary frequencies ignored.
 Zero-point vibrational energy     411108.5 (Joules/Mol)
                                   98.25729 (Kcal/Mol)
 Warning -- explicit consideration of  14 degrees of freedom as
           vibrations may cause significant error
 Vibrational temperatures:     26.64    78.23    90.57   143.55   240.83
          (Kelvin)            280.59   425.56   453.27   542.92   590.81
                              660.81   768.23   844.47   851.39  1161.47
                             1332.44  1511.27  1540.62  1570.57  1648.28
                             1665.20  1701.06  1712.03  1767.05  1900.25
                             1953.00  2144.25  2222.59  2253.62  2262.28
                             2265.80  2323.70  2330.14  2338.12  2353.28
                             2359.84  2425.77  4583.29  4595.83  4646.45
                             4656.62  4712.78  4717.82  4762.49  4791.28
                             4832.21  5850.58

 Zero-point correction=                           0.156583 (Hartree/Particle)
 Thermal correction to Energy=                    0.166472
 Thermal correction to Enthalpy=                  0.167416
 Thermal correction to Gibbs Free Energy=         0.119049
 Sum of electronic and zero-point Energies=           -345.101150
 Sum of electronic and thermal Energies=              -345.091261
 Sum of electronic and thermal Enthalpies=            -345.090317
 Sum of electronic and thermal Free Energies=         -345.138684

                     E (Thermal)             CV                S
                      KCal/Mol        Cal/Mol-Kelvin    Cal/Mol-Kelvin
 Total                  104.463             32.461            101.797
 Electronic               0.000              0.000              1.377
 Translational            0.889              2.981             39.808
 Rotational               0.889              2.981             28.775
 Vibrational            102.685             26.499             31.836
 Vibration     1          0.593              1.986              6.787
 Vibration     2          0.596              1.976              4.652
 Vibration     3          0.597              1.972              4.362
 Vibration     4          0.604              1.949              3.459
 Vibration     5          0.624              1.883              2.465
 Vibration     6          0.636              1.847              2.180
 Vibration     7          0.690              1.682              1.441
 Vibration     8          0.702              1.645              1.336
 Vibration     9          0.748              1.518              1.050
 Vibration    10          0.775              1.447              0.924
 Vibration    11          0.817              1.340              0.768
 Vibration    12          0.889              1.175              0.578
 Vibration    13          0.944              1.060              0.473
 Vibration    14          0.949              1.049              0.464

 Optimization completed on the basis of negligible forces.
    -- Stationary point found.
 Normal termination of Gaussian 09 at Thu Apr 26 16:23:34 2018.
